
     Program BANDS v.6.2 starts on  1Jul2020 at  6: 3:39 

     This program is part of the open-source Quantum ESPRESSO suite
     for quantum simulation of materials; please cite
         "P. Giannozzi et al., J. Phys.:Condens. Matter 21 395502 (2009);
         "P. Giannozzi et al., J. Phys.:Condens. Matter 29 465901 (2017);
          URL http://www.quantum-espresso.org", 
     in publications or presentations arising from this work. More details at
     http://www.quantum-espresso.org/quote

     Parallel version (MPI), running on    16 processors

     MPI processes distributed on     1 nodes
     R & G space division:  proc/nbgrp/npool/nimage =      16

     Reading data from directory:
     /home/theodoros/PROJ_TUTORIALS/theodoros/Lesson_9/SCF/tmp/scf.save/

     IMPORTANT: XC functional enforced from input :
     Exchange-correlation      = PBE ( 1  4  3  4 0 0)
     Any further DFT definition will be discarded
     Please, verify this is what you really want

 
     Parallelization info
     --------------------
     sticks:   dense  smooth     PW     G-vecs:    dense   smooth      PW
     Min          36      36     12                  573      573     117
     Max          37      37     13                  575      575     120
     Sum         583     583    199                 9185     9185    1893
 
     high-symmetry point:  0.0943 0.0943 0.0943   x coordinate   0.0000
     high-symmetry point:  0.0000 0.0000 0.0000   x coordinate   0.1634
     high-symmetry point:  0.1887-0.1887 0.1887   x coordinate   0.4902

     Plottable bands (eV) written to file bands.dat.gnu
     Bands written to file bands.dat

 **************************************************************************

                    xk=(   0.09433,   0.09433,   0.09433  )

     point group C_3v (3m)  
     there are  3 classes
     the character table:

       E     2C3   3s_v 
A_1    1.00  1.00  1.00
A_2    1.00  1.00 -1.00
E      2.00 -1.00  0.00

     the symmetry operations in each class and the name of the first element:

     E        1
                                                                 
     2C3      2    3
                                                                 
     3s_v     4    5    6
                                                                 

     Band symmetry, C_3v (3m)   point group:

     e(  1 -  1) =     -5.25772  eV     1   --> A_1  L_1       
     e(  2 -  2) =     -2.00430  eV     1   --> A_1  L_1       
     e(  3 -  4) =      3.91541  eV     2   --> E    L_3       
     e(  5 -  5) =      5.24389  eV     1   --> A_1  L_1       
     e(  6 -  7) =      8.90233  eV     2   --> E    L_3       
     e(  8 -  8) =     12.45582  eV     1   --> A_1  L_1       

 **************************************************************************

 **************************************************************************

                    xk=(   0.09365,   0.09365,   0.09365  )

     Band symmetry, C_3v (3m)   point group:

     e(  1 -  1) =     -5.24520  eV     1   --> A_1  L_1       
     e(  2 -  2) =     -2.02463  eV     1   --> A_1  L_1       
     e(  3 -  4) =      3.91274  eV     2   --> E    L_3       
     e(  5 -  5) =      5.24110  eV     1   --> A_1  L_1       
     e(  6 -  7) =      8.90138  eV     2   --> E    L_3       
     e(  8 -  8) =     12.45289  eV     1   --> A_1  L_1       

 **************************************************************************

 **************************************************************************

                    xk=(   0.09297,   0.09297,   0.09297  )

     Band symmetry, C_3v (3m)   point group:

     e(  1 -  1) =     -5.23369  eV     1   --> A_1  L_1       
     e(  2 -  2) =     -2.04324  eV     1   --> A_1  L_1       
     e(  3 -  4) =      3.91032  eV     2   --> E    L_3       
     e(  5 -  5) =      5.23856  eV     1   --> A_1  L_1       
     e(  6 -  7) =      8.90051  eV     2   --> E    L_3       
     e(  8 -  8) =     12.45017  eV     1   --> A_1  L_1       

 **************************************************************************

 **************************************************************************

                    xk=(   0.09229,   0.09229,   0.09229  )

     Band symmetry, C_3v (3m)   point group:

     e(  1 -  1) =     -5.22322  eV     1   --> A_1  L_1       
     e(  2 -  2) =     -2.06008  eV     1   --> A_1  L_1       
     e(  3 -  4) =      3.90813  eV     2   --> E    L_3       
     e(  5 -  5) =      5.23628  eV     1   --> A_1  L_1       
     e(  6 -  7) =      8.89971  eV     2   --> E    L_3       
     e(  8 -  8) =     12.44768  eV     1   --> A_1  L_1       

 **************************************************************************

 **************************************************************************

                    xk=(   0.09162,   0.09162,   0.09162  )

     Band symmetry, C_3v (3m)   point group:

     e(  1 -  1) =     -5.21384  eV     1   --> A_1  L_1       
     e(  2 -  2) =     -2.07511  eV     1   --> A_1  L_1       
     e(  3 -  4) =      3.90620  eV     2   --> E    L_3       
     e(  5 -  5) =      5.23426  eV     1   --> A_1  L_1       
     e(  6 -  7) =      8.89899  eV     2   --> E    L_3       
     e(  8 -  8) =     12.44544  eV     1   --> A_1  L_1       

 **************************************************************************

 **************************************************************************

                    xk=(   0.09094,   0.09094,   0.09094  )

     Band symmetry, C_3v (3m)   point group:

     e(  1 -  1) =     -5.20557  eV     1   --> A_1  L_1       
     e(  2 -  2) =     -2.08831  eV     1   --> A_1  L_1       
     e(  3 -  4) =      3.90451  eV     2   --> E    L_3       
     e(  5 -  5) =      5.23250  eV     1   --> A_1  L_1       
     e(  6 -  7) =      8.89836  eV     2   --> E    L_3       
     e(  8 -  8) =     12.44346  eV     1   --> A_1  L_1       

 **************************************************************************

 **************************************************************************

                    xk=(   0.09026,   0.09026,   0.09026  )

     Band symmetry, C_3v (3m)   point group:

     e(  1 -  1) =     -5.19846  eV     1   --> A_1  L_1       
     e(  2 -  2) =     -2.09964  eV     1   --> A_1  L_1       
     e(  3 -  4) =      3.90308  eV     2   --> E    L_3       
     e(  5 -  5) =      5.23099  eV     1   --> A_1  L_1       
     e(  6 -  7) =      8.89781  eV     2   --> E    L_3       
     e(  8 -  8) =     12.44175  eV     1   --> A_1  L_1       

 **************************************************************************

 **************************************************************************

                    xk=(   0.08958,   0.08958,   0.08958  )

     Band symmetry, C_3v (3m)   point group:

     e(  1 -  1) =     -5.19252  eV     1   --> A_1  L_1       
     e(  2 -  2) =     -2.10906  eV     1   --> A_1  L_1       
     e(  3 -  4) =      3.90188  eV     2   --> E    L_3       
     e(  5 -  5) =      5.22974  eV     1   --> A_1  L_1       
     e(  6 -  7) =      8.89735  eV     2   --> E    L_3       
     e(  8 -  8) =     12.44032  eV     1   --> A_1  L_1       

 **************************************************************************

 **************************************************************************

                    xk=(   0.08890,   0.08890,   0.08890  )

     Band symmetry, C_3v (3m)   point group:

     e(  1 -  1) =     -5.18779  eV     1   --> A_1  L_1       
     e(  2 -  2) =     -2.11657  eV     1   --> A_1  L_1       
     e(  3 -  4) =      3.90094  eV     2   --> E    L_3       
     e(  5 -  5) =      5.22875  eV     1   --> A_1  L_1       
     e(  6 -  7) =      8.89698  eV     2   --> E    L_3       
     e(  8 -  8) =     12.43918  eV     1   --> A_1  L_1       

 **************************************************************************

 **************************************************************************

                    xk=(   0.08822,   0.08822,   0.08822  )

     Band symmetry, C_3v (3m)   point group:

     e(  1 -  1) =     -5.18427  eV     1   --> A_1  L_1       
     e(  2 -  2) =     -2.12212  eV     1   --> A_1  L_1       
     e(  3 -  4) =      3.90024  eV     2   --> E    L_3       
     e(  5 -  5) =      5.22802  eV     1   --> A_1  L_1       
     e(  6 -  7) =      8.89671  eV     2   --> E    L_3       
     e(  8 -  8) =     12.43833  eV     1   --> A_1  L_1       

 **************************************************************************

 **************************************************************************

                    xk=(   0.08754,   0.08754,   0.08754  )

     Band symmetry, C_3v (3m)   point group:

     e(  1 -  1) =     -5.18199  eV     1   --> A_1  L_1       
     e(  2 -  2) =     -2.12573  eV     1   --> A_1  L_1       
     e(  3 -  4) =      3.89978  eV     2   --> E    L_3       
     e(  5 -  5) =      5.22755  eV     1   --> A_1  L_1       
     e(  6 -  7) =      8.89653  eV     2   --> E    L_3       
     e(  8 -  8) =     12.43778  eV     1   --> A_1  L_1       

 **************************************************************************

 **************************************************************************

                    xk=(   0.08686,   0.08686,   0.08686  )

     Band symmetry, C_3v (3m)   point group:

     e(  1 -  1) =     -5.18095  eV     1   --> A_1  L_1       
     e(  2 -  2) =     -2.12736  eV     1   --> A_1  L_1       
     e(  3 -  4) =      3.89958  eV     2   --> E    L_3       
     e(  5 -  5) =      5.22733  eV     1   --> A_1  L_1       
     e(  6 -  7) =      8.89645  eV     2   --> E    L_3       
     e(  8 -  8) =     12.43753  eV     1   --> A_1  L_1       

 **************************************************************************

 **************************************************************************

                    xk=(   0.08619,   0.08619,   0.08619  )

     Band symmetry, C_3v (3m)   point group:

     e(  1 -  1) =     -5.18116  eV     1   --> A_1  L_1       
     e(  2 -  2) =     -2.12703  eV     1   --> A_1  L_1       
     e(  3 -  4) =      3.89962  eV     2   --> E    L_3       
     e(  5 -  5) =      5.22738  eV     1   --> A_1  L_1       
     e(  6 -  7) =      8.89647  eV     2   --> E    L_3       
     e(  8 -  8) =     12.43758  eV     1   --> A_1  L_1       

 **************************************************************************

 **************************************************************************

                    xk=(   0.08551,   0.08551,   0.08551  )

     Band symmetry, C_3v (3m)   point group:

     e(  1 -  1) =     -5.18262  eV     1   --> A_1  L_1       
     e(  2 -  2) =     -2.12473  eV     1   --> A_1  L_1       
     e(  3 -  4) =      3.89991  eV     2   --> E    L_3       
     e(  5 -  5) =      5.22768  eV     1   --> A_1  L_1       
     e(  6 -  7) =      8.89658  eV     2   --> E    L_3       
     e(  8 -  8) =     12.43793  eV     1   --> A_1  L_1       

 **************************************************************************

 **************************************************************************

                    xk=(   0.08483,   0.08483,   0.08483  )

     Band symmetry, C_3v (3m)   point group:

     e(  1 -  1) =     -5.18532  eV     1   --> A_1  L_1       
     e(  2 -  2) =     -2.12046  eV     1   --> A_1  L_1       
     e(  3 -  4) =      3.90045  eV     2   --> E    L_3       
     e(  5 -  5) =      5.22824  eV     1   --> A_1  L_1       
     e(  6 -  7) =      8.89679  eV     2   --> E    L_3       
     e(  8 -  8) =     12.43858  eV     1   --> A_1  L_1       

 **************************************************************************

 **************************************************************************

                    xk=(   0.08415,   0.08415,   0.08415  )

     Band symmetry, C_3v (3m)   point group:

     e(  1 -  1) =     -5.18925  eV     1   --> A_1  L_1       
     e(  2 -  2) =     -2.11424  eV     1   --> A_1  L_1       
     e(  3 -  4) =      3.90123  eV     2   --> E    L_3       
     e(  5 -  5) =      5.22906  eV     1   --> A_1  L_1       
     e(  6 -  7) =      8.89710  eV     2   --> E    L_3       
     e(  8 -  8) =     12.43953  eV     1   --> A_1  L_1       

 **************************************************************************

 **************************************************************************

                    xk=(   0.08347,   0.08347,   0.08347  )

     Band symmetry, C_3v (3m)   point group:

     e(  1 -  1) =     -5.19440  eV     1   --> A_1  L_1       
     e(  2 -  2) =     -2.10609  eV     1   --> A_1  L_1       
     e(  3 -  4) =      3.90226  eV     2   --> E    L_3       
     e(  5 -  5) =      5.23013  eV     1   --> A_1  L_1       
     e(  6 -  7) =      8.89749  eV     2   --> E    L_3       
     e(  8 -  8) =     12.44077  eV     1   --> A_1  L_1       

 **************************************************************************

 **************************************************************************

                    xk=(   0.08279,   0.08279,   0.08279  )

     Band symmetry, C_3v (3m)   point group:

     e(  1 -  1) =     -5.20073  eV     1   --> A_1  L_1       
     e(  2 -  2) =     -2.09602  eV     1   --> A_1  L_1       
     e(  3 -  4) =      3.90353  eV     2   --> E    L_3       
     e(  5 -  5) =      5.23147  eV     1   --> A_1  L_1       
     e(  6 -  7) =      8.89798  eV     2   --> E    L_3       
     e(  8 -  8) =     12.44230  eV     1   --> A_1  L_1       

 **************************************************************************

 **************************************************************************

                    xk=(   0.08211,   0.08211,   0.08211  )

     Band symmetry, C_3v (3m)   point group:

     e(  1 -  1) =     -5.20824  eV     1   --> A_1  L_1       
     e(  2 -  2) =     -2.08405  eV     1   --> A_1  L_1       
     e(  3 -  4) =      3.90506  eV     2   --> E    L_3       
     e(  5 -  5) =      5.23307  eV     1   --> A_1  L_1       
     e(  6 -  7) =      8.89856  eV     2   --> E    L_3       
     e(  8 -  8) =     12.44410  eV     1   --> A_1  L_1       

 **************************************************************************

 **************************************************************************

                    xk=(   0.08144,   0.08144,   0.08144  )

     Band symmetry, C_3v (3m)   point group:

     e(  1 -  1) =     -5.21689  eV     1   --> A_1  L_1       
     e(  2 -  2) =     -2.07023  eV     1   --> A_1  L_1       
     e(  3 -  4) =      3.90683  eV     2   --> E    L_3       
     e(  5 -  5) =      5.23492  eV     1   --> A_1  L_1       
     e(  6 -  7) =      8.89923  eV     2   --> E    L_3       
     e(  8 -  8) =     12.44617  eV     1   --> A_1  L_1       

 **************************************************************************

 **************************************************************************

                    xk=(   0.08076,   0.08076,   0.08076  )

     Band symmetry, C_3v (3m)   point group:

     e(  1 -  1) =     -5.22664  eV     1   --> A_1  L_1       
     e(  2 -  2) =     -2.05458  eV     1   --> A_1  L_1       
     e(  3 -  4) =      3.90884  eV     2   --> E    L_3       
     e(  5 -  5) =      5.23703  eV     1   --> A_1  L_1       
     e(  6 -  7) =      8.89997  eV     2   --> E    L_3       
     e(  8 -  8) =     12.44850  eV     1   --> A_1  L_1       

 **************************************************************************

 **************************************************************************

                    xk=(   0.08008,   0.08008,   0.08008  )

     Band symmetry, C_3v (3m)   point group:

     e(  1 -  1) =     -5.23747  eV     1   --> A_1  L_1       
     e(  2 -  2) =     -2.03714  eV     1   --> A_1  L_1       
     e(  3 -  4) =      3.91111  eV     2   --> E    L_3       
     e(  5 -  5) =      5.23939  eV     1   --> A_1  L_1       
     e(  6 -  7) =      8.90080  eV     2   --> E    L_3       
     e(  8 -  8) =     12.45106  eV     1   --> A_1  L_1       

 **************************************************************************

 **************************************************************************

                    xk=(   0.07940,   0.07940,   0.07940  )

     Band symmetry, C_3v (3m)   point group:

     e(  1 -  1) =     -5.24933  eV     1   --> A_1  L_1       
     e(  2 -  2) =     -2.01794  eV     1   --> A_1  L_1       
     e(  3 -  4) =      3.91362  eV     2   --> E    L_3       
     e(  5 -  5) =      5.24201  eV     1   --> A_1  L_1       
     e(  6 -  7) =      8.90170  eV     2   --> E    L_3       
     e(  8 -  8) =     12.45385  eV     1   --> A_1  L_1       

 **************************************************************************

 **************************************************************************

                    xk=(   0.07872,   0.07872,   0.07872  )

     Band symmetry, C_3v (3m)   point group:

     e(  1 -  1) =     -5.26218  eV     1   --> A_1  L_1       
     e(  2 -  2) =     -1.99703  eV     1   --> A_1  L_1       
     e(  3 -  4) =      3.91637  eV     2   --> E    L_3       
     e(  5 -  5) =      5.24489  eV     1   --> A_1  L_1       
     e(  6 -  7) =      8.90266  eV     2   --> E    L_3       
     e(  8 -  8) =     12.45685  eV     1   --> A_1  L_1       

 **************************************************************************

 **************************************************************************

                    xk=(   0.07804,   0.07804,   0.07804  )

     Band symmetry, C_3v (3m)   point group:

     e(  1 -  1) =     -5.27599  eV     1   --> A_1  L_1       
     e(  2 -  2) =     -1.97445  eV     1   --> A_1  L_1       
     e(  3 -  4) =      3.91937  eV     2   --> E    L_3       
     e(  5 -  5) =      5.24802  eV     1   --> A_1  L_1       
     e(  6 -  7) =      8.90369  eV     2   --> E    L_3       
     e(  8 -  8) =     12.46003  eV     1   --> A_1  L_1       

 **************************************************************************

 **************************************************************************

                    xk=(   0.07736,   0.07736,   0.07736  )

     Band symmetry, C_3v (3m)   point group:

     e(  1 -  1) =     -5.29070  eV     1   --> A_1  L_1       
     e(  2 -  2) =     -1.95025  eV     1   --> A_1  L_1       
     e(  3 -  4) =      3.92261  eV     2   --> E    L_3       
     e(  5 -  5) =      5.25141  eV     1   --> A_1  L_1       
     e(  6 -  7) =      8.90478  eV     2   --> E    L_3       
     e(  8 -  8) =     12.46337  eV     1   --> A_1  L_1       

 **************************************************************************

 **************************************************************************

                    xk=(   0.07669,   0.07669,   0.07669  )

     Band symmetry, C_3v (3m)   point group:

     e(  1 -  1) =     -5.30627  eV     1   --> A_1  L_1       
     e(  2 -  2) =     -1.92446  eV     1   --> A_1  L_1       
     e(  3 -  4) =      3.92610  eV     2   --> E    L_3       
     e(  5 -  5) =      5.25505  eV     1   --> A_1  L_1       
     e(  6 -  7) =      8.90592  eV     2   --> E    L_3       
     e(  8 -  8) =     12.46683  eV     1   --> A_1  L_1       

 **************************************************************************

 **************************************************************************

                    xk=(   0.07601,   0.07601,   0.07601  )

     Band symmetry, C_3v (3m)   point group:

     e(  1 -  1) =     -5.32266  eV     1   --> A_1  L_1       
     e(  2 -  2) =     -1.89714  eV     1   --> A_1  L_1       
     e(  3 -  4) =      3.92984  eV     2   --> E    L_3       
     e(  5 -  5) =      5.25895  eV     1   --> A_1  L_1       
     e(  6 -  7) =      8.90710  eV     2   --> E    L_3       
     e(  8 -  8) =     12.47038  eV     1   --> A_1  L_1       

 **************************************************************************

 **************************************************************************

                    xk=(   0.07533,   0.07533,   0.07533  )

     Band symmetry, C_3v (3m)   point group:

     e(  1 -  1) =     -5.33982  eV     1   --> A_1  L_1       
     e(  2 -  2) =     -1.86833  eV     1   --> A_1  L_1       
     e(  3 -  4) =      3.93382  eV     2   --> E    L_3       
     e(  5 -  5) =      5.26310  eV     1   --> A_1  L_1       
     e(  6 -  7) =      8.90832  eV     2   --> E    L_3       
     e(  8 -  8) =     12.47398  eV     1   --> A_1  L_1       

 **************************************************************************

 **************************************************************************

                    xk=(   0.07465,   0.07465,   0.07465  )

     Band symmetry, C_3v (3m)   point group:

     e(  1 -  1) =     -5.35771  eV     1   --> A_1  L_1       
     e(  2 -  2) =     -1.83807  eV     1   --> A_1  L_1       
     e(  3 -  4) =      3.93804  eV     2   --> E    L_3       
     e(  5 -  5) =      5.26750  eV     1   --> A_1  L_1       
     e(  6 -  7) =      8.90957  eV     2   --> E    L_3       
     e(  8 -  8) =     12.47756  eV     1   --> A_1  L_1       

 **************************************************************************

 **************************************************************************

                    xk=(   0.07397,   0.07397,   0.07397  )

     Band symmetry, C_3v (3m)   point group:

     e(  1 -  1) =     -5.37628  eV     1   --> A_1  L_1       
     e(  2 -  2) =     -1.80642  eV     1   --> A_1  L_1       
     e(  3 -  4) =      3.94251  eV     2   --> E    L_3       
     e(  5 -  5) =      5.27215  eV     1   --> A_1  L_1       
     e(  6 -  7) =      8.91084  eV     2   --> E    L_3       
     e(  8 -  8) =     12.48107  eV     1   --> A_1  L_1       

 **************************************************************************

 **************************************************************************

                    xk=(   0.07329,   0.07329,   0.07329  )

     Band symmetry, C_3v (3m)   point group:

     e(  1 -  1) =     -5.39549  eV     1   --> A_1  L_1       
     e(  2 -  2) =     -1.77342  eV     1   --> A_1  L_1       
     e(  3 -  4) =      3.94722  eV     2   --> E    L_3       
     e(  5 -  5) =      5.27705  eV     1   --> A_1  L_1       
     e(  6 -  7) =      8.91211  eV     2   --> E    L_3       
     e(  8 -  8) =     12.48445  eV     1   --> A_1  L_1       

 **************************************************************************

 **************************************************************************

                    xk=(   0.07261,   0.07261,   0.07261  )

     Band symmetry, C_3v (3m)   point group:

     e(  1 -  1) =     -5.41529  eV     1   --> A_1  L_1       
     e(  2 -  2) =     -1.73911  eV     1   --> A_1  L_1       
     e(  3 -  4) =      3.95215  eV     2   --> E    L_3       
     e(  5 -  5) =      5.28221  eV     1   --> A_1  L_1       
     e(  6 -  7) =      8.91339  eV     2   --> E    L_3       
     e(  8 -  8) =     12.48757  eV     1   --> A_1  L_1       

 **************************************************************************

 **************************************************************************

                    xk=(   0.07193,   0.07193,   0.07193  )

     Band symmetry, C_3v (3m)   point group:

     e(  1 -  1) =     -5.43565  eV     1   --> A_1  L_1       
     e(  2 -  2) =     -1.70353  eV     1   --> A_1  L_1       
     e(  3 -  4) =      3.95735  eV     2   --> E    L_3       
     e(  5 -  5) =      5.28761  eV     1   --> A_1  L_1       
     e(  6 -  7) =      8.91466  eV     2   --> E    L_3       
     e(  8 -  8) =     12.49038  eV     1   --> A_1  L_1       

 **************************************************************************

 **************************************************************************

                    xk=(   0.07126,   0.07126,   0.07126  )

     Band symmetry, C_3v (3m)   point group:

     e(  1 -  1) =     -5.45651  eV     1   --> A_1  L_1       
     e(  2 -  2) =     -1.66673  eV     1   --> A_1  L_1       
     e(  3 -  4) =      3.96278  eV     2   --> E    L_3       
     e(  5 -  5) =      5.29326  eV     1   --> A_1  L_1       
     e(  6 -  7) =      8.91591  eV     2   --> E    L_3       
     e(  8 -  8) =     12.49272  eV     1   --> A_1  L_1       

 **************************************************************************

 **************************************************************************

                    xk=(   0.07058,   0.07058,   0.07058  )

     Band symmetry, C_3v (3m)   point group:

     e(  1 -  1) =     -5.47783  eV     1   --> A_1  L_1       
     e(  2 -  2) =     -1.62875  eV     1   --> A_1  L_1       
     e(  3 -  4) =      3.96846  eV     2   --> E    L_3       
     e(  5 -  5) =      5.29916  eV     1   --> A_1  L_1       
     e(  6 -  7) =      8.91714  eV     2   --> E    L_3       
     e(  8 -  8) =     12.49444  eV     1   --> A_1  L_1       

 **************************************************************************

 **************************************************************************

                    xk=(   0.06990,   0.06990,   0.06990  )

     Band symmetry, C_3v (3m)   point group:

     e(  1 -  1) =     -5.49959  eV     1   --> A_1  L_1       
     e(  2 -  2) =     -1.58963  eV     1   --> A_1  L_1       
     e(  3 -  4) =      3.97438  eV     2   --> E    L_3       
     e(  5 -  5) =      5.30530  eV     1   --> A_1  L_1       
     e(  6 -  7) =      8.91832  eV     2   --> E    L_3       
     e(  8 -  8) =     12.49537  eV     1   --> A_1  L_1       

 **************************************************************************

 **************************************************************************

                    xk=(   0.06922,   0.06922,   0.06922  )

     Band symmetry, C_3v (3m)   point group:

     e(  1 -  1) =     -5.52174  eV     1   --> A_1  L_1       
     e(  2 -  2) =     -1.54941  eV     1   --> A_1  L_1       
     e(  3 -  4) =      3.98054  eV     2   --> E    L_3       
     e(  5 -  5) =      5.31169  eV     1   --> A_1  L_1       
     e(  6 -  7) =      8.91944  eV     2   --> E    L_3       
     e(  8 -  8) =     12.49527  eV     1   --> A_1  L_1       

 **************************************************************************

 **************************************************************************

                    xk=(   0.06854,   0.06854,   0.06854  )

     Band symmetry, C_3v (3m)   point group:

     e(  1 -  1) =     -5.54425  eV     1   --> A_1  L_1       
     e(  2 -  2) =     -1.50812  eV     1   --> A_1  L_1       
     e(  3 -  4) =      3.98693  eV     2   --> E    L_3       
     e(  5 -  5) =      5.31832  eV     1   --> A_1  L_1       
     e(  6 -  7) =      8.92050  eV     2   --> E    L_3       
     e(  8 -  8) =     12.49388  eV     1   --> A_1  L_1       

 **************************************************************************

 **************************************************************************

                    xk=(   0.06786,   0.06786,   0.06786  )

     Band symmetry, C_3v (3m)   point group:

     e(  1 -  1) =     -5.56708  eV     1   --> A_1  L_1       
     e(  2 -  2) =     -1.46580  eV     1   --> A_1  L_1       
     e(  3 -  4) =      3.99357  eV     2   --> E    L_3       
     e(  5 -  5) =      5.32519  eV     1   --> A_1  L_1       
     e(  6 -  7) =      8.92149  eV     2   --> E    L_3       
     e(  8 -  8) =     12.49087  eV     1   --> A_1  L_1       

 **************************************************************************

 **************************************************************************

                    xk=(   0.06718,   0.06718,   0.06718  )

     Band symmetry, C_3v (3m)   point group:

     e(  1 -  1) =     -5.59020  eV     1   --> A_1  L_1       
     e(  2 -  2) =     -1.42249  eV     1   --> A_1  L_1       
     e(  3 -  4) =      4.00045  eV     2   --> E    L_3       
     e(  5 -  5) =      5.33230  eV     1   --> A_1  L_1       
     e(  6 -  7) =      8.92237  eV     2   --> E    L_3       
     e(  8 -  8) =     12.48585  eV     1   --> A_1  L_1       

 **************************************************************************

 **************************************************************************

                    xk=(   0.06651,   0.06651,   0.06651  )

     Band symmetry, C_3v (3m)   point group:

     e(  1 -  1) =     -5.61357  eV     1   --> A_1  L_1       
     e(  2 -  2) =     -1.37821  eV     1   --> A_1  L_1       
     e(  3 -  4) =      4.00756  eV     2   --> E    L_3       
     e(  5 -  5) =      5.33965  eV     1   --> A_1  L_1       
     e(  6 -  7) =      8.92315  eV     2   --> E    L_3       
     e(  8 -  8) =     12.47839  eV     1   --> A_1  L_1       

 **************************************************************************

 **************************************************************************

                    xk=(   0.06583,   0.06583,   0.06583  )

     Band symmetry, C_3v (3m)   point group:

     e(  1 -  1) =     -5.63717  eV     1   --> A_1  L_1       
     e(  2 -  2) =     -1.33301  eV     1   --> A_1  L_1       
     e(  3 -  4) =      4.01491  eV     2   --> E    L_3       
     e(  5 -  5) =      5.34724  eV     1   --> A_1  L_1       
     e(  6 -  7) =      8.92381  eV     2   --> E    L_3       
     e(  8 -  8) =     12.46798  eV     1   --> A_1  L_1       

 **************************************************************************

 **************************************************************************

                    xk=(   0.06515,   0.06515,   0.06515  )

     Band symmetry, C_3v (3m)   point group:

     e(  1 -  1) =     -5.66096  eV     1   --> A_1  L_1       
     e(  2 -  2) =     -1.28690  eV     1   --> A_1  L_1       
     e(  3 -  4) =      4.02249  eV     2   --> E    L_3       
     e(  5 -  5) =      5.35506  eV     1   --> A_1  L_1       
     e(  6 -  7) =      8.92433  eV     2   --> E    L_3       
     e(  8 -  8) =     12.45407  eV     1   --> A_1  L_1       

 **************************************************************************

 **************************************************************************

                    xk=(   0.06447,   0.06447,   0.06447  )

     Band symmetry, C_3v (3m)   point group:

     e(  1 -  1) =     -5.68493  eV     1   --> A_1  L_1       
     e(  2 -  2) =     -1.23993  eV     1   --> A_1  L_1       
     e(  3 -  4) =      4.03031  eV     2   --> E    L_3       
     e(  5 -  5) =      5.36311  eV     1   --> A_1  L_1       
     e(  6 -  7) =      8.92470  eV     2   --> E    L_3       
     e(  8 -  8) =     12.43614  eV     1   --> A_1  L_1       

 **************************************************************************

 **************************************************************************

                    xk=(   0.06379,   0.06379,   0.06379  )

     Band symmetry, C_3v (3m)   point group:

     e(  1 -  1) =     -5.70903  eV     1   --> A_1  L_1       
     e(  2 -  2) =     -1.19211  eV     1   --> A_1  L_1       
     e(  3 -  4) =      4.03836  eV     2   --> E    L_3       
     e(  5 -  5) =      5.37140  eV     1   --> A_1  L_1       
     e(  6 -  7) =      8.92490  eV     2   --> E    L_3       
     e(  8 -  8) =     12.41369  eV     1   --> A_1  L_1       

 **************************************************************************

 **************************************************************************

                    xk=(   0.06311,   0.06311,   0.06311  )

     Band symmetry, C_3v (3m)   point group:

     e(  1 -  1) =     -5.73326  eV     1   --> A_1  L_1       
     e(  2 -  2) =     -1.14347  eV     1   --> A_1  L_1       
     e(  3 -  4) =      4.04664  eV     2   --> E    L_3       
     e(  5 -  5) =      5.37991  eV     1   --> A_1  L_1       
     e(  6 -  7) =      8.92491  eV     2   --> E    L_3       
     e(  8 -  8) =     12.38637  eV     1   --> A_1  L_1       

 **************************************************************************

 **************************************************************************

                    xk=(   0.06243,   0.06243,   0.06243  )

     Band symmetry, C_3v (3m)   point group:

     e(  1 -  1) =     -5.75758  eV     1   --> A_1  L_1       
     e(  2 -  2) =     -1.09404  eV     1   --> A_1  L_1       
     e(  3 -  4) =      4.05516  eV     2   --> E    L_3       
     e(  5 -  5) =      5.38865  eV     1   --> A_1  L_1       
     e(  6 -  7) =      8.92473  eV     2   --> E    L_3       
     e(  8 -  8) =     12.35398  eV     1   --> A_1  L_1       

 **************************************************************************

 **************************************************************************

                    xk=(   0.06176,   0.06176,   0.06176  )

     Band symmetry, C_3v (3m)   point group:

     e(  1 -  1) =     -5.78197  eV     1   --> A_1  L_1       
     e(  2 -  2) =     -1.04385  eV     1   --> A_1  L_1       
     e(  3 -  4) =      4.06390  eV     2   --> E    L_3       
     e(  5 -  5) =      5.39762  eV     1   --> A_1  L_1       
     e(  6 -  7) =      8.92433  eV     2   --> E    L_3       
     e(  8 -  8) =     12.31655  eV     1   --> A_1  L_1       

 **************************************************************************

 **************************************************************************

                    xk=(   0.06108,   0.06108,   0.06108  )

     Band symmetry, C_3v (3m)   point group:

     e(  1 -  1) =     -5.80641  eV     1   --> A_1  L_1       
     e(  2 -  2) =     -0.99291  eV     1   --> A_1  L_1       
     e(  3 -  4) =      4.07288  eV     2   --> E    L_3       
     e(  5 -  5) =      5.40680  eV     1   --> A_1  L_1       
     e(  6 -  7) =      8.92369  eV     2   --> E    L_3       
     e(  8 -  8) =     12.27430  eV     1   --> A_1  L_1       

 **************************************************************************

 **************************************************************************

                    xk=(   0.06040,   0.06040,   0.06040  )

     Band symmetry, C_3v (3m)   point group:

     e(  1 -  1) =     -5.83088  eV     1   --> A_1  L_1       
     e(  2 -  2) =     -0.94124  eV     1   --> A_1  L_1       
     e(  3 -  4) =      4.08208  eV     2   --> E    L_3       
     e(  5 -  5) =      5.41621  eV     1   --> A_1  L_1       
     e(  6 -  7) =      8.92280  eV     2   --> E    L_3       
     e(  8 -  8) =     12.22765  eV     1   --> A_1  L_1       

 **************************************************************************

 **************************************************************************

                    xk=(   0.05972,   0.05972,   0.05972  )

     Band symmetry, C_3v (3m)   point group:

     e(  1 -  1) =     -5.85536  eV     1   --> A_1  L_1       
     e(  2 -  2) =     -0.88888  eV     1   --> A_1  L_1       
     e(  3 -  4) =      4.09151  eV     2   --> E    L_3       
     e(  5 -  5) =      5.42583  eV     1   --> A_1  L_1       
     e(  6 -  7) =      8.92164  eV     2   --> E    L_3       
     e(  8 -  8) =     12.17707  eV     1   --> A_1  L_1       

 **************************************************************************

 **************************************************************************

                    xk=(   0.05904,   0.05904,   0.05904  )

     Band symmetry, C_3v (3m)   point group:

     e(  1 -  1) =     -5.87984  eV     1   --> A_1  L_1       
     e(  2 -  2) =     -0.83583  eV     1   --> A_1  L_1       
     e(  3 -  4) =      4.10117  eV     2   --> E    L_3       
     e(  5 -  5) =      5.43566  eV     1   --> A_1  L_1       
     e(  6 -  7) =      8.92020  eV     2   --> E    L_3       
     e(  8 -  8) =     12.12309  eV     1   --> A_1  L_1       

 **************************************************************************

 **************************************************************************

                    xk=(   0.05836,   0.05836,   0.05836  )

     Band symmetry, C_3v (3m)   point group:

     e(  1 -  1) =     -5.90429  eV     1   --> A_1  L_1       
     e(  2 -  2) =     -0.78212  eV     1   --> A_1  L_1       
     e(  3 -  4) =      4.11105  eV     2   --> E    L_3       
     e(  5 -  5) =      5.44570  eV     1   --> A_1  L_1       
     e(  6 -  7) =      8.91844  eV     2   --> E    L_3       
     e(  8 -  8) =     12.06623  eV     1   --> A_1  L_1       

 **************************************************************************

 **************************************************************************

                    xk=(   0.05768,   0.05768,   0.05768  )

     Band symmetry, C_3v (3m)   point group:

     e(  1 -  1) =     -5.92869  eV     1   --> A_1  L_1       
     e(  2 -  2) =     -0.72777  eV     1   --> A_1  L_1       
     e(  3 -  4) =      4.12115  eV     2   --> E    L_3       
     e(  5 -  5) =      5.45595  eV     1   --> A_1  L_1       
     e(  6 -  7) =      8.91637  eV     2   --> E    L_3       
     e(  8 -  8) =     12.00696  eV     1   --> A_1  L_1       

 **************************************************************************

 **************************************************************************

                    xk=(   0.05700,   0.05700,   0.05700  )

     Band symmetry, C_3v (3m)   point group:

     e(  1 -  1) =     -5.95304  eV     1   --> A_1  L_1       
     e(  2 -  2) =     -0.67279  eV     1   --> A_1  L_1       
     e(  3 -  4) =      4.13147  eV     2   --> E    L_3       
     e(  5 -  5) =      5.46641  eV     1   --> A_1  L_1       
     e(  6 -  7) =      8.91396  eV     2   --> E    L_3       
     e(  8 -  8) =     11.94571  eV     1   --> A_1  L_1       

 **************************************************************************

 **************************************************************************

                    xk=(   0.05633,   0.05633,   0.05633  )

     Band symmetry, C_3v (3m)   point group:

     e(  1 -  1) =     -5.97732  eV     1   --> A_1  L_1       
     e(  2 -  2) =     -0.61720  eV     1   --> A_1  L_1       
     e(  3 -  4) =      4.14201  eV     2   --> E    L_3       
     e(  5 -  5) =      5.47706  eV     1   --> A_1  L_1       
     e(  6 -  7) =      8.91119  eV     2   --> E    L_3       
     e(  8 -  8) =     11.88281  eV     1   --> A_1  L_1       

 **************************************************************************

 **************************************************************************

                    xk=(   0.05565,   0.05565,   0.05565  )

     Band symmetry, C_3v (3m)   point group:

     e(  1 -  1) =     -6.00152  eV     1   --> A_1  L_1       
     e(  2 -  2) =     -0.56101  eV     1   --> A_1  L_1       
     e(  3 -  4) =      4.15278  eV     2   --> E    L_3       
     e(  5 -  5) =      5.48790  eV     1   --> A_1  L_1       
     e(  6 -  7) =      8.90804  eV     2   --> E    L_3       
     e(  8 -  8) =     11.81858  eV     1   --> A_1  L_1       

 **************************************************************************

 **************************************************************************

                    xk=(   0.05497,   0.05497,   0.05497  )

     Band symmetry, C_3v (3m)   point group:

     e(  1 -  1) =     -6.02561  eV     1   --> A_1  L_1       
     e(  2 -  2) =     -0.50425  eV     1   --> A_1  L_1       
     e(  3 -  4) =      4.16375  eV     2   --> E    L_3       
     e(  5 -  5) =      5.49894  eV     1   --> A_1  L_1       
     e(  6 -  7) =      8.90450  eV     2   --> E    L_3       
     e(  8 -  8) =     11.75326  eV     1   --> A_1  L_1       

 **************************************************************************

 **************************************************************************

                    xk=(   0.05429,   0.05429,   0.05429  )

     Band symmetry, C_3v (3m)   point group:

     e(  1 -  1) =     -6.04959  eV     1   --> A_1  L_1       
     e(  2 -  2) =     -0.44693  eV     1   --> A_1  L_1       
     e(  3 -  4) =      4.17494  eV     2   --> E    L_3       
     e(  5 -  5) =      5.51016  eV     1   --> A_1  L_1       
     e(  6 -  7) =      8.90056  eV     2   --> E    L_3       
     e(  8 -  8) =     11.68705  eV     1   --> A_1  L_1       

 **************************************************************************

 **************************************************************************

                    xk=(   0.05361,   0.05361,   0.05361  )

     Band symmetry, C_3v (3m)   point group:

     e(  1 -  1) =     -6.07345  eV     1   --> A_1  L_1       
     e(  2 -  2) =     -0.38905  eV     1   --> A_1  L_1       
     e(  3 -  4) =      4.18634  eV     2   --> E    L_3       
     e(  5 -  5) =      5.52156  eV     1   --> A_1  L_1       
     e(  6 -  7) =      8.89619  eV     2   --> E    L_3       
     e(  8 -  8) =     11.62013  eV     1   --> A_1  L_1       

 **************************************************************************

 **************************************************************************

                    xk=(   0.05293,   0.05293,   0.05293  )

     Band symmetry, C_3v (3m)   point group:

     e(  1 -  1) =     -6.09718  eV     1   --> A_1  L_1       
     e(  2 -  2) =     -0.33064  eV     1   --> A_1  L_1       
     e(  3 -  4) =      4.19796  eV     2   --> E    L_3       
     e(  5 -  5) =      5.53315  eV     1   --> A_1  L_1       
     e(  6 -  7) =      8.89140  eV     2   --> E    L_3       
     e(  8 -  8) =     11.55263  eV     1   --> A_1  L_1       

 **************************************************************************

 **************************************************************************

                    xk=(   0.05225,   0.05225,   0.05225  )

     Band symmetry, C_3v (3m)   point group:

     e(  1 -  1) =     -6.12075  eV     1   --> A_1  L_1       
     e(  2 -  2) =     -0.27171  eV     1   --> A_1  L_1       
     e(  3 -  4) =      4.20978  eV     2   --> E    L_3       
     e(  5 -  5) =      5.54490  eV     1   --> A_1  L_1       
     e(  6 -  7) =      8.88613  eV     2   --> E    L_3       
     e(  8 -  8) =     11.48467  eV     1   --> A_1  L_1       

 **************************************************************************

 **************************************************************************

                    xk=(   0.05158,   0.05158,   0.05158  )

     Band symmetry, C_3v (3m)   point group:

     e(  1 -  1) =     -6.14418  eV     1   --> A_1  L_1       
     e(  2 -  2) =     -0.21227  eV     1   --> A_1  L_1       
     e(  3 -  4) =      4.22181  eV     2   --> E    L_3       
     e(  5 -  5) =      5.55682  eV     1   --> A_1  L_1       
     e(  6 -  7) =      8.88039  eV     2   --> E    L_3       
     e(  8 -  8) =     11.41642  eV     1   --> A_1  L_1       

 **************************************************************************

 **************************************************************************

                    xk=(   0.05090,   0.05090,   0.05090  )

     Band symmetry, C_3v (3m)   point group:

     e(  1 -  1) =     -6.16743  eV     1   --> A_1  L_1       
     e(  2 -  2) =     -0.15233  eV     1   --> A_1  L_1       
     e(  3 -  4) =      4.23404  eV     2   --> E    L_3       
     e(  5 -  5) =      5.56889  eV     1   --> A_1  L_1       
     e(  6 -  7) =      8.87416  eV     2   --> E    L_3       
     e(  8 -  8) =     11.34781  eV     1   --> A_1  L_1       

 **************************************************************************

 **************************************************************************

                    xk=(   0.05022,   0.05022,   0.05022  )

     Band symmetry, C_3v (3m)   point group:

     e(  1 -  1) =     -6.19052  eV     1   --> A_1  L_1       
     e(  2 -  2) =     -0.09191  eV     1   --> A_1  L_1       
     e(  3 -  4) =      4.24646  eV     2   --> E    L_3       
     e(  5 -  5) =      5.58112  eV     1   --> A_1  L_1       
     e(  6 -  7) =      8.86744  eV     2   --> E    L_3       
     e(  8 -  8) =     11.27899  eV     1   --> A_1  L_1       

 **************************************************************************

 **************************************************************************

                    xk=(   0.04954,   0.04954,   0.04954  )

     Band symmetry, C_3v (3m)   point group:

     e(  1 -  1) =     -6.21342  eV     1   --> A_1  L_1       
     e(  2 -  2) =     -0.03101  eV     1   --> A_1  L_1       
     e(  3 -  4) =      4.25909  eV     2   --> E    L_3       
     e(  5 -  5) =      5.59350  eV     1   --> A_1  L_1       
     e(  6 -  7) =      8.86021  eV     2   --> E    L_3       
     e(  8 -  8) =     11.21002  eV     1   --> A_1  L_1       

 **************************************************************************

 **************************************************************************

                    xk=(   0.04886,   0.04886,   0.04886  )

     Band symmetry, C_3v (3m)   point group:

     e(  1 -  1) =     -6.23613  eV     1   --> A_1  L_1       
     e(  2 -  2) =      0.03034  eV     1   --> A_1  L_1       
     e(  3 -  4) =      4.27191  eV     2   --> E    L_3       
     e(  5 -  5) =      5.60601  eV     1   --> A_1  L_1       
     e(  6 -  7) =      8.85245  eV     2   --> E    L_3       
     e(  8 -  8) =     11.14092  eV     1   --> A_1  L_1       

 **************************************************************************

 **************************************************************************

                    xk=(   0.04818,   0.04818,   0.04818  )

     Band symmetry, C_3v (3m)   point group:

     e(  1 -  1) =     -6.25863  eV     1   --> A_1  L_1       
     e(  2 -  2) =      0.09215  eV     1   --> A_1  L_1       
     e(  3 -  4) =      4.28492  eV     2   --> E    L_3       
     e(  5 -  5) =      5.61865  eV     1   --> A_1  L_1       
     e(  6 -  7) =      8.84417  eV     2   --> E    L_3       
     e(  8 -  8) =     11.07177  eV     1   --> A_1  L_1       

 **************************************************************************

 **************************************************************************

                    xk=(   0.04750,   0.04750,   0.04750  )

     Band symmetry, C_3v (3m)   point group:

     e(  1 -  1) =     -6.28094  eV     1   --> A_1  L_1       
     e(  2 -  2) =      0.15440  eV     1   --> A_1  L_1       
     e(  3 -  4) =      4.29813  eV     2   --> E    L_3       
     e(  5 -  5) =      5.63141  eV     1   --> A_1  L_1       
     e(  6 -  7) =      8.83534  eV     2   --> E    L_3       
     e(  8 -  8) =     11.00258  eV     1   --> A_1  L_1       

 **************************************************************************

 **************************************************************************

                    xk=(   0.04683,   0.04683,   0.04683  )

     Band symmetry, C_3v (3m)   point group:

     e(  1 -  1) =     -6.30302  eV     1   --> A_1  L_1       
     e(  2 -  2) =      0.21708  eV     1   --> A_1  L_1       
     e(  3 -  4) =      4.31151  eV     2   --> E    L_3       
     e(  5 -  5) =      5.64429  eV     1   --> A_1  L_1       
     e(  6 -  7) =      8.82597  eV     2   --> E    L_3       
     e(  8 -  8) =     10.93339  eV     1   --> A_1  L_1       

 **************************************************************************

 **************************************************************************

                    xk=(   0.04615,   0.04615,   0.04615  )

     Band symmetry, C_3v (3m)   point group:

     e(  1 -  1) =     -6.32489  eV     1   --> A_1  L_1       
     e(  2 -  2) =      0.28018  eV     1   --> A_1  L_1       
     e(  3 -  4) =      4.32509  eV     2   --> E    L_3       
     e(  5 -  5) =      5.65727  eV     1   --> A_1  L_1       
     e(  6 -  7) =      8.81605  eV     2   --> E    L_3       
     e(  8 -  8) =     10.86422  eV     1   --> A_1  L_1       

 **************************************************************************

 **************************************************************************

                    xk=(   0.04547,   0.04547,   0.04547  )

     Band symmetry, C_3v (3m)   point group:

     e(  1 -  1) =     -6.34653  eV     1   --> A_1  L_1       
     e(  2 -  2) =      0.34369  eV     1   --> A_1  L_1       
     e(  3 -  4) =      4.33883  eV     2   --> E    L_3       
     e(  5 -  5) =      5.67035  eV     1   --> A_1  L_1       
     e(  6 -  7) =      8.80557  eV     2   --> E    L_3       
     e(  8 -  8) =     10.79512  eV     1   --> A_1  L_1       

 **************************************************************************

 **************************************************************************

                    xk=(   0.04479,   0.04479,   0.04479  )

     Band symmetry, C_3v (3m)   point group:

     e(  1 -  1) =     -6.36794  eV     1   --> A_1  L_1       
     e(  2 -  2) =      0.40760  eV     1   --> A_1  L_1       
     e(  3 -  4) =      4.35276  eV     2   --> E    L_3       
     e(  5 -  5) =      5.68351  eV     1   --> A_1  L_1       
     e(  6 -  7) =      8.79452  eV     2   --> E    L_3       
     e(  8 -  8) =     10.72608  eV     1   --> A_1  L_1       

 **************************************************************************

 **************************************************************************

                    xk=(   0.04411,   0.04411,   0.04411  )

     Band symmetry, C_3v (3m)   point group:

     e(  1 -  1) =     -6.38910  eV     1   --> A_1  L_1       
     e(  2 -  2) =      0.47190  eV     1   --> A_1  L_1       
     e(  3 -  4) =      4.36685  eV     2   --> E    L_3       
     e(  5 -  5) =      5.69675  eV     1   --> A_1  L_1       
     e(  6 -  7) =      8.78292  eV     2   --> E    L_3       
     e(  8 -  8) =     10.65714  eV     1   --> A_1  L_1       

 **************************************************************************

 **************************************************************************

                    xk=(   0.04343,   0.04343,   0.04343  )

     Band symmetry, C_3v (3m)   point group:

     e(  1 -  1) =     -6.41003  eV     1   --> A_1  L_1       
     e(  2 -  2) =      0.53658  eV     1   --> A_1  L_1       
     e(  3 -  4) =      4.38112  eV     2   --> E    L_3       
     e(  5 -  5) =      5.71005  eV     1   --> A_1  L_1       
     e(  6 -  7) =      8.77076  eV     2   --> E    L_3       
     e(  8 -  8) =     10.58831  eV     1   --> A_1  L_1       

 **************************************************************************

 **************************************************************************

                    xk=(   0.04275,   0.04275,   0.04275  )

     Band symmetry, C_3v (3m)   point group:

     e(  1 -  1) =     -6.43070  eV     1   --> A_1  L_1       
     e(  2 -  2) =      0.60163  eV     1   --> A_1  L_1       
     e(  3 -  4) =      4.39554  eV     2   --> E    L_3       
     e(  5 -  5) =      5.72339  eV     1   --> A_1  L_1       
     e(  6 -  7) =      8.75803  eV     2   --> E    L_3       
     e(  8 -  8) =     10.51962  eV     1   --> A_1  L_1       

 **************************************************************************

 **************************************************************************

                    xk=(   0.04208,   0.04208,   0.04208  )

     Band symmetry, C_3v (3m)   point group:

     e(  1 -  1) =     -6.45112  eV     1   --> A_1  L_1       
     e(  2 -  2) =      0.66705  eV     1   --> A_1  L_1       
     e(  3 -  4) =      4.41013  eV     2   --> E    L_3       
     e(  5 -  5) =      5.73678  eV     1   --> A_1  L_1       
     e(  6 -  7) =      8.74475  eV     2   --> E    L_3       
     e(  8 -  8) =     10.45106  eV     1   --> A_1  L_1       

 **************************************************************************

 **************************************************************************

                    xk=(   0.04140,   0.04140,   0.04140  )

     Band symmetry, C_3v (3m)   point group:

     e(  1 -  1) =     -6.47127  eV     1   --> A_1  L_1       
     e(  2 -  2) =      0.73281  eV     1   --> A_1  L_1       
     e(  3 -  4) =      4.42487  eV     2   --> E    L_3       
     e(  5 -  5) =      5.75018  eV     1   --> A_1  L_1       
     e(  6 -  7) =      8.73092  eV     2   --> E    L_3       
     e(  8 -  8) =     10.38267  eV     1   --> A_1  L_1       

 **************************************************************************

 **************************************************************************

                    xk=(   0.04072,   0.04072,   0.04072  )

     Band symmetry, C_3v (3m)   point group:

     e(  1 -  1) =     -6.49117  eV     1   --> A_1  L_1       
     e(  2 -  2) =      0.79892  eV     1   --> A_1  L_1       
     e(  3 -  4) =      4.43976  eV     2   --> E    L_3       
     e(  5 -  5) =      5.76359  eV     1   --> A_1  L_1       
     e(  6 -  7) =      8.71654  eV     2   --> E    L_3       
     e(  8 -  8) =     10.31446  eV     1   --> A_1  L_1       

 **************************************************************************

 **************************************************************************

                    xk=(   0.04004,   0.04004,   0.04004  )

     Band symmetry, C_3v (3m)   point group:

     e(  1 -  1) =     -6.51079  eV     1   --> A_1  L_1       
     e(  2 -  2) =      0.86537  eV     1   --> A_1  L_1       
     e(  3 -  4) =      4.45479  eV     2   --> E    L_3       
     e(  5 -  5) =      5.77700  eV     1   --> A_1  L_1       
     e(  6 -  7) =      8.70162  eV     2   --> E    L_3       
     e(  8 -  8) =     10.24643  eV     1   --> A_1  L_1       

 **************************************************************************

 **************************************************************************

                    xk=(   0.03936,   0.03936,   0.03936  )

     Band symmetry, C_3v (3m)   point group:

     e(  1 -  1) =     -6.53014  eV     1   --> A_1  L_1       
     e(  2 -  2) =      0.93215  eV     1   --> A_1  L_1       
     e(  3 -  4) =      4.46996  eV     2   --> E    L_3       
     e(  5 -  5) =      5.79037  eV     1   --> A_1  L_1       
     e(  6 -  7) =      8.68618  eV     2   --> E    L_3       
     e(  8 -  8) =     10.17860  eV     1   --> A_1  L_1       

 **************************************************************************

 **************************************************************************

                    xk=(   0.03868,   0.03868,   0.03868  )

     Band symmetry, C_3v (3m)   point group:

     e(  1 -  1) =     -6.54922  eV     1   --> A_1  L_1       
     e(  2 -  2) =      0.99924  eV     1   --> A_1  L_1       
     e(  3 -  4) =      4.48527  eV     2   --> E    L_3       
     e(  5 -  5) =      5.80370  eV     1   --> A_1  L_1       
     e(  6 -  7) =      8.67024  eV     2   --> E    L_3       
     e(  8 -  8) =     10.11100  eV     1   --> A_1  L_1       

 **************************************************************************

 **************************************************************************

                    xk=(   0.03800,   0.03800,   0.03800  )

     Band symmetry, C_3v (3m)   point group:

     e(  1 -  1) =     -6.56801  eV     1   --> A_1  L_1       
     e(  2 -  2) =      1.06665  eV     1   --> A_1  L_1       
     e(  3 -  4) =      4.50070  eV     2   --> E    L_3       
     e(  5 -  5) =      5.81697  eV     1   --> A_1  L_1       
     e(  6 -  7) =      8.65377  eV     2   --> E    L_3       
     e(  8 -  8) =     10.04363  eV     1   --> A_1  L_1       

 **************************************************************************

 **************************************************************************

                    xk=(   0.03732,   0.03732,   0.03732  )

     Band symmetry, C_3v (3m)   point group:

     e(  1 -  1) =     -6.58652  eV     1   --> A_1  L_1       
     e(  2 -  2) =      1.13435  eV     1   --> A_1  L_1       
     e(  3 -  4) =      4.51625  eV     2   --> E    L_3       
     e(  5 -  5) =      5.83015  eV     1   --> A_1  L_1       
     e(  6 -  7) =      8.63682  eV     2   --> E    L_3       
     e(  8 -  8) =      9.97650  eV     1   --> A_1  L_1       

 **************************************************************************

 **************************************************************************

                    xk=(   0.03665,   0.03665,   0.03665  )

     Band symmetry, C_3v (3m)   point group:

     e(  1 -  1) =     -6.60475  eV     1   --> A_1  L_1       
     e(  2 -  2) =      1.20234  eV     1   --> A_1  L_1       
     e(  3 -  4) =      4.53192  eV     2   --> E    L_3       
     e(  5 -  5) =      5.84322  eV     1   --> A_1  L_1       
     e(  6 -  7) =      8.61939  eV     2   --> E    L_3       
     e(  8 -  8) =      9.90964  eV     1   --> A_1  L_1       

 **************************************************************************

 **************************************************************************

                    xk=(   0.03597,   0.03597,   0.03597  )

     Band symmetry, C_3v (3m)   point group:

     e(  1 -  1) =     -6.62268  eV     1   --> A_1  L_1       
     e(  2 -  2) =      1.27062  eV     1   --> A_1  L_1       
     e(  3 -  4) =      4.54769  eV     2   --> E    L_3       
     e(  5 -  5) =      5.85616  eV     1   --> A_1  L_1       
     e(  6 -  7) =      8.60151  eV     2   --> E    L_3       
     e(  8 -  8) =      9.84306  eV     1   --> A_1  L_1       

 **************************************************************************

 **************************************************************************

                    xk=(   0.03529,   0.03529,   0.03529  )

     Band symmetry, C_3v (3m)   point group:

     e(  1 -  1) =     -6.64032  eV     1   --> A_1  L_1       
     e(  2 -  2) =      1.33917  eV     1   --> A_1  L_1       
     e(  3 -  4) =      4.56356  eV     2   --> E    L_3       
     e(  5 -  5) =      5.86893  eV     1   --> A_1  L_1       
     e(  6 -  7) =      8.58319  eV     2   --> E    L_3       
     e(  8 -  8) =      9.77678  eV     1   --> A_1  L_1       

 **************************************************************************

 **************************************************************************

                    xk=(   0.03461,   0.03461,   0.03461  )

     Band symmetry, C_3v (3m)   point group:

     e(  1 -  1) =     -6.65766  eV     1   --> A_1  L_1       
     e(  2 -  2) =      1.40798  eV     1   --> A_1  L_1       
     e(  3 -  4) =      4.57953  eV     2   --> E    L_3       
     e(  5 -  5) =      5.88153  eV     1   --> A_1  L_1       
     e(  6 -  7) =      8.56445  eV     2   --> E    L_3       
     e(  8 -  8) =      9.71082  eV     1   --> A_1  L_1       

 **************************************************************************

 **************************************************************************

                    xk=(   0.03393,   0.03393,   0.03393  )

     Band symmetry, C_3v (3m)   point group:

     e(  1 -  1) =     -6.67470  eV     1   --> A_1  L_1       
     e(  2 -  2) =      1.47704  eV     1   --> A_1  L_1       
     e(  3 -  4) =      4.59558  eV     2   --> E    L_3       
     e(  5 -  5) =      5.89390  eV     1   --> A_1  L_1       
     e(  6 -  7) =      8.54531  eV     2   --> E    L_3       
     e(  8 -  8) =      9.64519  eV     1   --> A_1  L_1       

 **************************************************************************

 **************************************************************************

                    xk=(   0.03325,   0.03325,   0.03325  )

     Band symmetry, C_3v (3m)   point group:

     e(  1 -  1) =     -6.69144  eV     1   --> A_1  L_1       
     e(  2 -  2) =      1.54636  eV     1   --> A_1  L_1       
     e(  3 -  4) =      4.61171  eV     2   --> E    L_3       
     e(  5 -  5) =      5.90603  eV     1   --> A_1  L_1       
     e(  6 -  7) =      8.52581  eV     2   --> E    L_3       
     e(  8 -  8) =      9.57992  eV     1   --> A_1  L_1       

 **************************************************************************

 **************************************************************************

                    xk=(   0.03257,   0.03257,   0.03257  )

     Band symmetry, C_3v (3m)   point group:

     e(  1 -  1) =     -6.70787  eV     1   --> A_1  L_1       
     e(  2 -  2) =      1.61590  eV     1   --> A_1  L_1       
     e(  3 -  4) =      4.62791  eV     2   --> E    L_3       
     e(  5 -  5) =      5.91788  eV     1   --> A_1  L_1       
     e(  6 -  7) =      8.50594  eV     2   --> E    L_3       
     e(  8 -  8) =      9.51503  eV     1   --> A_1  L_1       

 **************************************************************************

 **************************************************************************

                    xk=(   0.03190,   0.03190,   0.03190  )

     Band symmetry, C_3v (3m)   point group:

     e(  1 -  1) =     -6.72400  eV     1   --> A_1  L_1       
     e(  2 -  2) =      1.68567  eV     1   --> A_1  L_1       
     e(  3 -  4) =      4.64417  eV     2   --> E    L_3       
     e(  5 -  5) =      5.92940  eV     1   --> A_1  L_1       
     e(  6 -  7) =      8.48576  eV     2   --> E    L_3       
     e(  8 -  8) =      9.45054  eV     1   --> A_1  L_1       

 **************************************************************************

 **************************************************************************

                    xk=(   0.03122,   0.03122,   0.03122  )

     Band symmetry, C_3v (3m)   point group:

     e(  1 -  1) =     -6.73981  eV     1   --> A_1  L_1       
     e(  2 -  2) =      1.75566  eV     1   --> A_1  L_1       
     e(  3 -  4) =      4.66048  eV     2   --> E    L_3       
     e(  5 -  5) =      5.94057  eV     1   --> A_1  L_1       
     e(  6 -  7) =      8.46527  eV     2   --> E    L_3       
     e(  8 -  8) =      9.38649  eV     1   --> A_1  L_1       

 **************************************************************************

 **************************************************************************

                    xk=(   0.03054,   0.03054,   0.03054  )

     Band symmetry, C_3v (3m)   point group:

     e(  1 -  1) =     -6.75531  eV     1   --> A_1  L_1       
     e(  2 -  2) =      1.82586  eV     1   --> A_1  L_1       
     e(  3 -  4) =      4.67683  eV     2   --> E    L_3       
     e(  5 -  5) =      5.95135  eV     1   --> A_1  L_1       
     e(  6 -  7) =      8.44451  eV     2   --> E    L_3       
     e(  8 -  8) =      9.32291  eV     1   --> A_1  L_1       

 **************************************************************************

 **************************************************************************

                    xk=(   0.02986,   0.02986,   0.02986  )

     Band symmetry, C_3v (3m)   point group:

     e(  1 -  1) =     -6.77050  eV     1   --> A_1  L_1       
     e(  2 -  2) =      1.89625  eV     1   --> A_1  L_1       
     e(  3 -  4) =      4.69321  eV     2   --> E    L_3       
     e(  5 -  5) =      5.96168  eV     1   --> A_1  L_1       
     e(  6 -  7) =      8.42351  eV     2   --> E    L_3       
     e(  8 -  8) =      9.25983  eV     1   --> A_1  L_1       

 **************************************************************************

 **************************************************************************

                    xk=(   0.02918,   0.02918,   0.02918  )

     Band symmetry, C_3v (3m)   point group:

     e(  1 -  1) =     -6.78537  eV     1   --> A_1  L_1       
     e(  2 -  2) =      1.96683  eV     1   --> A_1  L_1       
     e(  3 -  4) =      4.70960  eV     2   --> E    L_3       
     e(  5 -  5) =      5.97152  eV     1   --> A_1  L_1       
     e(  6 -  7) =      8.40228  eV     2   --> E    L_3       
     e(  8 -  8) =      9.19726  eV     1   --> A_1  L_1       

 **************************************************************************

 **************************************************************************

                    xk=(   0.02850,   0.02850,   0.02850  )

     Band symmetry, C_3v (3m)   point group:

     e(  1 -  1) =     -6.79993  eV     1   --> A_1  L_1       
     e(  2 -  2) =      2.03759  eV     1   --> A_1  L_1       
     e(  3 -  4) =      4.72601  eV     2   --> E    L_3       
     e(  5 -  5) =      5.98083  eV     1   --> A_1  L_1       
     e(  6 -  7) =      8.38087  eV     2   --> E    L_3       
     e(  8 -  8) =      9.13528  eV     1   --> A_1  L_1       

 **************************************************************************

 **************************************************************************

                    xk=(   0.02782,   0.02782,   0.02782  )

     Band symmetry, C_3v (3m)   point group:

     e(  1 -  1) =     -6.81416  eV     1   --> A_1  L_1       
     e(  2 -  2) =      2.10851  eV     1   --> A_1  L_1       
     e(  3 -  4) =      4.74242  eV     2   --> E    L_3       
     e(  5 -  5) =      5.98953  eV     1   --> A_1  L_1       
     e(  6 -  7) =      8.35930  eV     2   --> E    L_3       
     e(  8 -  8) =      9.07390  eV     1   --> A_1  L_1       

 **************************************************************************

 **************************************************************************

                    xk=(   0.02715,   0.02715,   0.02715  )

     Band symmetry, C_3v (3m)   point group:

     e(  1 -  1) =     -6.82807  eV     1   --> A_1  L_1       
     e(  2 -  2) =      2.17958  eV     1   --> A_1  L_1       
     e(  3 -  4) =      4.75881  eV     2   --> E    L_3       
     e(  5 -  5) =      5.99759  eV     1   --> A_1  L_1       
     e(  6 -  7) =      8.33760  eV     2   --> E    L_3       
     e(  8 -  8) =      9.01318  eV     1   --> A_1  L_1       

 **************************************************************************

 **************************************************************************

                    xk=(   0.02647,   0.02647,   0.02647  )

     Band symmetry, C_3v (3m)   point group:

     e(  1 -  1) =     -6.84165  eV     1   --> A_1  L_1       
     e(  2 -  2) =      2.25080  eV     1   --> A_1  L_1       
     e(  3 -  4) =      4.77517  eV     2   --> E    L_3       
     e(  5 -  5) =      6.00493  eV     1   --> A_1  L_1       
     e(  6 -  7) =      8.31579  eV     2   --> E    L_3       
     e(  8 -  8) =      8.95316  eV     1   --> A_1  L_1       

 **************************************************************************

 **************************************************************************

                    xk=(   0.02579,   0.02579,   0.02579  )

     Band symmetry, C_3v (3m)   point group:

     e(  1 -  1) =     -6.85491  eV     1   --> A_1  L_1       
     e(  2 -  2) =      2.32214  eV     1   --> A_1  L_1       
     e(  3 -  4) =      4.79149  eV     2   --> E    L_3       
     e(  5 -  5) =      6.01148  eV     1   --> A_1  L_1       
     e(  6 -  7) =      8.29392  eV     2   --> E    L_3       
     e(  8 -  8) =      8.89390  eV     1   --> A_1  L_1       

 **************************************************************************

 **************************************************************************

                    xk=(   0.02511,   0.02511,   0.02511  )

     Band symmetry, C_3v (3m)   point group:

     e(  1 -  1) =     -6.86785  eV     1   --> A_1  L_1       
     e(  2 -  2) =      2.39361  eV     1   --> A_1  L_1       
     e(  3 -  4) =      4.80776  eV     2   --> E    L_3       
     e(  5 -  5) =      6.01719  eV     1   --> A_1  L_1       
     e(  6 -  7) =      8.27201  eV     2   --> E    L_3       
     e(  8 -  8) =      8.83544  eV     1   --> A_1  L_1       

 **************************************************************************

 **************************************************************************

                    xk=(   0.02443,   0.02443,   0.02443  )

     Band symmetry, C_3v (3m)   point group:

     e(  1 -  1) =     -6.88045  eV     1   --> A_1  L_1       
     e(  2 -  2) =      2.46517  eV     1   --> A_1  L_1       
     e(  3 -  4) =      4.82395  eV     2   --> E    L_3       
     e(  5 -  5) =      6.02197  eV     1   --> A_1  L_1       
     e(  6 -  7) =      8.25009  eV     2   --> E    L_3       
     e(  8 -  8) =      8.77785  eV     1   --> A_1  L_1       

 **************************************************************************

 **************************************************************************

                    xk=(   0.02375,   0.02375,   0.02375  )

     Band symmetry, C_3v (3m)   point group:

     e(  1 -  1) =     -6.89272  eV     1   --> A_1  L_1       
     e(  2 -  2) =      2.53683  eV     1   --> A_1  L_1       
     e(  3 -  4) =      4.84006  eV     2   --> E    L_3       
     e(  5 -  5) =      6.02575  eV     1   --> A_1  L_1       
     e(  6 -  7) =      8.22821  eV     2   --> E    L_3       
     e(  8 -  8) =      8.72119  eV     1   --> A_1  L_1       

 **************************************************************************

 **************************************************************************

                    xk=(   0.02307,   0.02307,   0.02307  )

     Band symmetry, C_3v (3m)   point group:

     e(  1 -  1) =     -6.90466  eV     1   --> A_1  L_1       
     e(  2 -  2) =      2.60857  eV     1   --> A_1  L_1       
     e(  3 -  4) =      4.85607  eV     2   --> E    L_3       
     e(  5 -  5) =      6.02844  eV     1   --> A_1  L_1       
     e(  6 -  7) =      8.20638  eV     2   --> E    L_3       
     e(  8 -  8) =      8.66553  eV     1   --> A_1  L_1       

 **************************************************************************

 **************************************************************************

                    xk=(   0.02239,   0.02239,   0.02239  )

     Band symmetry, C_3v (3m)   point group:

     e(  1 -  1) =     -6.91627  eV     1   --> A_1  L_1       
     e(  2 -  2) =      2.68037  eV     1   --> A_1  L_1       
     e(  3 -  4) =      4.87196  eV     2   --> E    L_3       
     e(  5 -  5) =      6.02996  eV     1   --> A_1  L_1       
     e(  6 -  7) =      8.18465  eV     2   --> E    L_3       
     e(  8 -  8) =      8.61093  eV     1   --> A_1  L_1       

 **************************************************************************

 **************************************************************************

                    xk=(   0.02172,   0.02172,   0.02172  )

     Band symmetry, C_3v (3m)   point group:

     e(  1 -  1) =     -6.92754  eV     1   --> A_1  L_1       
     e(  2 -  2) =      2.75221  eV     1   --> A_1  L_1       
     e(  3 -  4) =      4.88771  eV     2   --> E    L_3       
     e(  5 -  5) =      6.03023  eV     1   --> A_1  L_1       
     e(  6 -  7) =      8.16305  eV     2   --> E    L_3       
     e(  8 -  8) =      8.55748  eV     1   --> A_1  L_1       

 **************************************************************************

 **************************************************************************

                    xk=(   0.02104,   0.02104,   0.02104  )

     Band symmetry, C_3v (3m)   point group:

     e(  1 -  1) =     -6.93848  eV     1   --> A_1  L_1       
     e(  2 -  2) =      2.82409  eV     1   --> A_1  L_1       
     e(  3 -  4) =      4.90332  eV     2   --> E    L_3       
     e(  5 -  5) =      6.02914  eV     1   --> A_1  L_1       
     e(  6 -  7) =      8.14161  eV     2   --> E    L_3       
     e(  8 -  8) =      8.50525  eV     1   --> A_1  L_1       

 **************************************************************************

 **************************************************************************

                    xk=(   0.02036,   0.02036,   0.02036  )

     Band symmetry, C_3v (3m)   point group:

     e(  1 -  1) =     -6.94908  eV     1   --> A_1  L_1       
     e(  2 -  2) =      2.89599  eV     1   --> A_1  L_1       
     e(  3 -  4) =      4.91875  eV     2   --> E    L_3       
     e(  5 -  5) =      6.02660  eV     1   --> A_1  L_1       
     e(  6 -  7) =      8.12036  eV     2   --> E    L_3       
     e(  8 -  8) =      8.45432  eV     1   --> A_1  L_1       

 **************************************************************************

 **************************************************************************

                    xk=(   0.01968,   0.01968,   0.01968  )

     Band symmetry, C_3v (3m)   point group:

     e(  1 -  1) =     -6.95935  eV     1   --> A_1  L_1       
     e(  2 -  2) =      2.96788  eV     1   --> A_1  L_1       
     e(  3 -  4) =      4.93399  eV     2   --> E    L_3       
     e(  5 -  5) =      6.02253  eV     1   --> A_1  L_1       
     e(  6 -  7) =      8.09934  eV     2   --> E    L_3       
     e(  8 -  8) =      8.40477  eV     1   --> A_1  L_1       

 **************************************************************************

 **************************************************************************

                    xk=(   0.01900,   0.01900,   0.01900  )

     Band symmetry, C_3v (3m)   point group:

     e(  1 -  1) =     -6.96927  eV     1   --> A_1  L_1       
     e(  2 -  2) =      3.03976  eV     1   --> A_1  L_1       
     e(  3 -  4) =      4.94903  eV     2   --> E    L_3       
     e(  5 -  5) =      6.01682  eV     1   --> A_1  L_1       
     e(  6 -  7) =      8.07859  eV     2   --> E    L_3       
     e(  8 -  8) =      8.35668  eV     1   --> A_1  L_1       

 **************************************************************************

 **************************************************************************

                    xk=(   0.01832,   0.01832,   0.01832  )

     Band symmetry, C_3v (3m)   point group:

     e(  1 -  1) =     -6.97886  eV     1   --> A_1  L_1       
     e(  2 -  2) =      3.11160  eV     1   --> A_1  L_1       
     e(  3 -  4) =      4.96383  eV     2   --> E    L_3       
     e(  5 -  5) =      6.00938  eV     1   --> A_1  L_1       
     e(  6 -  7) =      8.05814  eV     2   --> E    L_3       
     e(  8 -  8) =      8.31014  eV     1   --> A_1  L_1       

 **************************************************************************

 **************************************************************************

                    xk=(   0.01764,   0.01764,   0.01764  )

     Band symmetry, C_3v (3m)   point group:

     e(  1 -  1) =     -6.98810  eV     1   --> A_1  L_1       
     e(  2 -  2) =      3.18337  eV     1   --> A_1  L_1       
     e(  3 -  4) =      4.97838  eV     2   --> E    L_3       
     e(  5 -  5) =      6.00011  eV     1   --> A_1  L_1       
     e(  6 -  7) =      8.03802  eV     2   --> E    L_3       
     e(  8 -  8) =      8.26522  eV     1   --> A_1  L_1       

 **************************************************************************

 **************************************************************************

                    xk=(   0.01697,   0.01697,   0.01697  )

     Band symmetry, C_3v (3m)   point group:

     e(  1 -  1) =     -6.99700  eV     1   --> A_1  L_1       
     e(  2 -  2) =      3.25507  eV     1   --> A_1  L_1       
     e(  3 -  4) =      4.99266  eV     2   --> E    L_3       
     e(  5 -  5) =      5.98893  eV     1   --> A_1  L_1       
     e(  6 -  7) =      8.01827  eV     2   --> E    L_3       
     e(  8 -  8) =      8.22201  eV     1   --> A_1  L_1       

 **************************************************************************

 **************************************************************************

                    xk=(   0.01629,   0.01629,   0.01629  )

     Band symmetry, C_3v (3m)   point group:

     e(  1 -  1) =     -7.00556  eV     1   --> A_1  L_1       
     e(  2 -  2) =      3.32667  eV     1   --> A_1  L_1       
     e(  3 -  4) =      5.00665  eV     2   --> E    L_3       
     e(  5 -  5) =      5.97576  eV     1   --> A_1  L_1       
     e(  6 -  7) =      7.99892  eV     2   --> E    L_3       
     e(  8 -  8) =      8.18057  eV     1   --> A_1  L_1       

 **************************************************************************

 **************************************************************************

                    xk=(   0.01561,   0.01561,   0.01561  )

     Band symmetry, C_3v (3m)   point group:

     e(  1 -  1) =     -7.01378  eV     1   --> A_1  L_1       
     e(  2 -  2) =      3.39813  eV     1   --> A_1  L_1       
     e(  3 -  4) =      5.02032  eV     2   --> E    L_3       
     e(  5 -  5) =      5.96052  eV     1   --> A_1  L_1       
     e(  6 -  7) =      7.98002  eV     2   --> E    L_3       
     e(  8 -  8) =      8.14098  eV     1   --> A_1  L_1       

 **************************************************************************

 **************************************************************************

                    xk=(   0.01493,   0.01493,   0.01493  )

     Band symmetry, C_3v (3m)   point group:

     e(  1 -  1) =     -7.02165  eV     1   --> A_1  L_1       
     e(  2 -  2) =      3.46944  eV     1   --> A_1  L_1       
     e(  3 -  4) =      5.03365  eV     2   --> E    L_3       
     e(  5 -  5) =      5.94315  eV     1   --> A_1  L_1       
     e(  6 -  7) =      7.96157  eV     2   --> E    L_3       
     e(  8 -  8) =      8.10327  eV     1   --> A_1  L_1       

 **************************************************************************

 **************************************************************************

                    xk=(   0.01425,   0.01425,   0.01425  )

     Band symmetry, C_3v (3m)   point group:

     e(  1 -  1) =     -7.02918  eV     1   --> A_1  L_1       
     e(  2 -  2) =      3.54057  eV     1   --> A_1  L_1       
     e(  3 -  4) =      5.04662  eV     2   --> E    L_3       
     e(  5 -  5) =      5.92358  eV     1   --> A_1  L_1       
     e(  6 -  7) =      7.94365  eV     2   --> E    L_3       
     e(  8 -  8) =      8.06752  eV     1   --> A_1  L_1       

 **************************************************************************

 **************************************************************************

                    xk=(   0.01357,   0.01357,   0.01357  )

     Band symmetry, C_3v (3m)   point group:

     e(  1 -  1) =     -7.03636  eV     1   --> A_1  L_1       
     e(  2 -  2) =      3.61148  eV     1   --> A_1  L_1       
     e(  3 -  4) =      5.05920  eV     2   --> E    L_3       
     e(  5 -  5) =      5.90179  eV     1   --> A_1  L_1       
     e(  6 -  7) =      7.92627  eV     2   --> E    L_3       
     e(  8 -  8) =      8.03375  eV     1   --> A_1  L_1       

 **************************************************************************

 **************************************************************************

                    xk=(   0.01289,   0.01289,   0.01289  )

     Band symmetry, C_3v (3m)   point group:

     e(  1 -  1) =     -7.04319  eV     1   --> A_1  L_1       
     e(  2 -  2) =      3.68214  eV     1   --> A_1  L_1       
[...]
     e(  5 -  5) =      6.02319  eV     1   --> A_1  L_1       
     e(  6 -  7) =      8.10226  eV     2   --> E    L_3       
     e(  8 -  8) =      8.41160  eV     1   --> A_1  L_1       

 **************************************************************************

 **************************************************************************

                    xk=(   0.15468,  -0.15468,   0.15468  )

     Band symmetry, C_3v (3m)   point group:

     e(  1 -  1) =     -6.97494  eV     1   --> A_1  L_1       
     e(  2 -  2) =      3.08194  eV     1   --> A_1  L_1       
     e(  3 -  4) =      4.95775  eV     2   --> E    L_3       
     e(  5 -  5) =      6.01267  eV     1   --> A_1  L_1       
     e(  6 -  7) =      8.06654  eV     2   --> E    L_3       
     e(  8 -  8) =      8.32916  eV     1   --> A_1  L_1       

 **************************************************************************

 **************************************************************************

                    xk=(   0.15585,  -0.15585,   0.15585  )

     Band symmetry, C_3v (3m)   point group:

     e(  1 -  1) =     -6.99093  eV     1   --> A_1  L_1       
     e(  2 -  2) =      3.20589  eV     1   --> A_1  L_1       
     e(  3 -  4) =      4.98289  eV     2   --> E    L_3       
     e(  5 -  5) =      5.99681  eV     1   --> A_1  L_1       
     e(  6 -  7) =      8.03178  eV     2   --> E    L_3       
     e(  8 -  8) =      8.25147  eV     1   --> A_1  L_1       

 **************************************************************************

 **************************************************************************

                    xk=(   0.15702,  -0.15702,   0.15702  )

     Band symmetry, C_3v (3m)   point group:

     e(  1 -  1) =     -7.00590  eV     1   --> A_1  L_1       
     e(  2 -  2) =      3.32957  eV     1   --> A_1  L_1       
     e(  3 -  4) =      5.00721  eV     2   --> E    L_3       
     e(  5 -  5) =      5.97519  eV     1   --> A_1  L_1       
     e(  6 -  7) =      7.99815  eV     2   --> E    L_3       
     e(  8 -  8) =      8.17893  eV     1   --> A_1  L_1       

 **************************************************************************

 **************************************************************************

                    xk=(   0.15819,  -0.15819,   0.15819  )

     Band symmetry, C_3v (3m)   point group:

     e(  1 -  1) =     -7.01985  eV     1   --> A_1  L_1       
     e(  2 -  2) =      3.45286  eV     1   --> A_1  L_1       
     e(  3 -  4) =      5.03058  eV     2   --> E    L_3       
     e(  5 -  5) =      5.94738  eV     1   --> A_1  L_1       
     e(  6 -  7) =      7.96582  eV     2   --> E    L_3       
     e(  8 -  8) =      8.11187  eV     1   --> A_1  L_1       

 **************************************************************************

 **************************************************************************

                    xk=(   0.15936,  -0.15936,   0.15936  )

     Band symmetry, C_3v (3m)   point group:

     e(  1 -  1) =     -7.03277  eV     1   --> A_1  L_1       
     e(  2 -  2) =      3.57563  eV     1   --> A_1  L_1       
     e(  3 -  4) =      5.05289  eV     2   --> E    L_3       
     e(  5 -  5) =      5.91310  eV     1   --> A_1  L_1       
     e(  6 -  7) =      7.93500  eV     2   --> E    L_3       
     e(  8 -  8) =      8.05059  eV     1   --> A_1  L_1       

 **************************************************************************

 **************************************************************************

                    xk=(   0.16054,  -0.16054,   0.16054  )

     Band symmetry, C_3v (3m)   point group:

     e(  1 -  1) =     -7.04465  eV     1   --> A_1  L_1       
     e(  2 -  2) =      3.69770  eV     1   --> A_1  L_1       
     e(  3 -  4) =      5.07400  eV     2   --> E    L_3       
     e(  5 -  5) =      5.87214  eV     1   --> A_1  L_1       
     e(  6 -  7) =      7.90585  eV     2   --> E    L_3       
     e(  8 -  8) =      7.99527  eV     1   --> A_1  L_1       

 **************************************************************************

 **************************************************************************

                    xk=(   0.16171,  -0.16171,   0.16171  )

     Band symmetry, C_3v (3m)   point group:

     e(  1 -  1) =     -7.05550  eV     1   --> A_1  L_1       
     e(  2 -  2) =      3.81889  eV     1   --> A_1  L_1       
     e(  3 -  4) =      5.09381  eV     2   --> E    L_3       
     e(  5 -  5) =      5.82446  eV     1   --> A_1  L_1       
     e(  6 -  7) =      7.87855  eV     2   --> E    L_3       
     e(  8 -  8) =      7.94600  eV     1   --> A_1  L_1       

 **************************************************************************

 **************************************************************************

                    xk=(   0.16288,  -0.16288,   0.16288  )

     Band symmetry, C_3v (3m)   point group:

     e(  1 -  1) =     -7.06532  eV     1   --> A_1  L_1       
     e(  2 -  2) =      3.93895  eV     1   --> A_1  L_1       
     e(  3 -  4) =      5.11218  eV     2   --> E    L_3       
     e(  5 -  5) =      5.77017  eV     1   --> A_1  L_1       
     e(  6 -  7) =      7.85328  eV     2   --> E    L_3       
     e(  8 -  8) =      7.90271  eV     1   --> A_1  L_1       

 **************************************************************************

 **************************************************************************

                    xk=(   0.16405,  -0.16405,   0.16405  )

     Band symmetry, C_3v (3m)   point group:

     e(  1 -  1) =     -7.07409  eV     1   --> A_1  L_1       
     e(  2 -  2) =      4.05758  eV     1   --> A_1  L_1       
     e(  3 -  4) =      5.12898  eV     2   --> E    L_3       
     e(  5 -  5) =      5.70954  eV     1   --> A_1  L_1       
     e(  6 -  7) =      7.83017  eV     2   --> E    L_3       
     e(  8 -  8) =      7.86525  eV     1   --> A_1  L_1       

 **************************************************************************

 **************************************************************************

                    xk=(   0.16522,  -0.16522,   0.16522  )

     Band symmetry, C_3v (3m)   point group:

     e(  1 -  1) =     -7.08182  eV     1   --> A_1  L_1       
     e(  2 -  2) =      4.17441  eV     1   --> A_1  L_1       
     e(  3 -  4) =      5.14411  eV     2   --> E    L_3       
     e(  5 -  5) =      5.64309  eV     1   --> A_1  L_1       
     e(  6 -  7) =      7.80943  eV     2   --> E    L_3       
     e(  8 -  8) =      7.83339  eV     1   --> A_1  L_1       

 **************************************************************************

 **************************************************************************

                    xk=(   0.16639,  -0.16639,   0.16639  )

     Band symmetry, C_3v (3m)   point group:

     e(  1 -  1) =     -7.08851  eV     1   --> A_1  L_1       
     e(  2 -  2) =      4.28887  eV     1   --> A_1  L_1       
     e(  3 -  4) =      5.15744  eV     2   --> E    L_3       
     e(  5 -  5) =      5.57150  eV     1   --> A_1  L_1       
     e(  6 -  7) =      7.79117  eV     2   --> E    L_3       
     e(  8 -  8) =      7.80683  eV     1   --> A_1  L_1       

 **************************************************************************

 **************************************************************************

                    xk=(   0.16757,  -0.16757,   0.16757  )

     Band symmetry, C_3v (3m)   point group:

     e(  1 -  1) =     -7.09415  eV     1   --> A_1  L_1       
     e(  2 -  2) =      4.40015  eV     1   --> A_1  L_1       
     e(  3 -  4) =      5.16888  eV     2   --> E    L_3       
     e(  5 -  5) =      5.49585  eV     1   --> A_1  L_1       
     e(  6 -  7) =      7.77553  eV     2   --> E    L_3       
     e(  8 -  8) =      7.78520  eV     1   --> A_1  L_1       

 **************************************************************************

 **************************************************************************

                    xk=(   0.16874,  -0.16874,   0.16874  )

     Band symmetry, C_3v (3m)   point group:

     e(  1 -  1) =     -7.09875  eV     1   --> A_1  L_1       
     e(  2 -  2) =      4.50686  eV     1   --> A_1  L_1       
     e(  3 -  4) =      5.17832  eV     2   --> E    L_3       
     e(  5 -  5) =      5.41773  eV     1   --> A_1  L_1       
     e(  6 -  7) =      7.76264  eV     2   --> E    L_3       
     e(  8 -  8) =      7.76815  eV     1   --> A_1  L_1       

 **************************************************************************

 **************************************************************************

                    xk=(   0.16991,  -0.16991,   0.16991  )

     Band symmetry, C_3v (3m)   point group:

     e(  1 -  1) =     -7.10229  eV     1   --> A_1  L_1       
     e(  2 -  2) =      4.60646  eV     1   --> A_1  L_1       
     e(  3 -  4) =      5.18569  eV     2   --> E    L_3       
     e(  5 -  5) =      5.33991  eV     1   --> A_1  L_1       
     e(  6 -  7) =      7.75259  eV     2   --> E    L_3       
     e(  8 -  8) =      7.75536  eV     1   --> A_1  L_1       

 **************************************************************************

 **************************************************************************

                    xk=(   0.17108,  -0.17108,   0.17108  )

     Band symmetry, C_3v (3m)   point group:

     e(  1 -  1) =     -7.10479  eV     1   --> A_1  L_1       
     e(  2 -  2) =      4.69370  eV     1   --> A_1  L_1       
     e(  3 -  4) =      5.19093  eV     2   --> E    L_3       
     e(  5 -  5) =      5.26786  eV     1   --> A_1  L_1       
     e(  6 -  7) =      7.74546  eV     2   --> E    L_3       
     e(  8 -  8) =      7.74656  eV     1   --> A_1  L_1       

 **************************************************************************

 **************************************************************************

                    xk=(   0.17225,  -0.17225,   0.17225  )

     Band symmetry, C_3v (3m)   point group:

     e(  1 -  1) =     -7.10623  eV     1   --> A_1  L_1       
     e(  2 -  2) =      4.75716  eV     1   --> A_1  L_1       
     e(  3 -  4) =      5.19397  eV     2   --> E    L_3       
     e(  5 -  5) =      5.21314  eV     1   --> A_1  L_1       
     e(  6 -  7) =      7.74131  eV     2   --> E    L_3       
     e(  8 -  8) =      7.74154  eV     1   --> A_1  L_1       

 **************************************************************************

 **************************************************************************

                    xk=(   0.17343,  -0.17343,   0.17343  )

     Band symmetry, C_3v (3m)   point group:

     e(  1 -  1) =     -7.10663  eV     1   --> A_1  L_1       
     e(  2 -  2) =      4.77747  eV     1   --> A_1  L_1       
     e(  3 -  4) =      5.19481  eV     2   --> E    L_3       
     e(  5 -  5) =      5.19521  eV     1   --> A_1  L_1       
     e(  6 -  8) =      7.74018  eV     3   --> A_1  L_1       
     e(  6 -  8) =      7.74018  eV     3   --> E    L_3       

 **************************************************************************

 **************************************************************************

                    xk=(   0.17460,  -0.17460,   0.17460  )

     Band symmetry, C_3v (3m)   point group:

     e(  1 -  1) =     -7.10597  eV     1   --> A_1  L_1       
     e(  2 -  2) =      4.74459  eV     1   --> A_1  L_1       
     e(  3 -  4) =      5.19342  eV     2   --> E    L_3       
     e(  5 -  5) =      5.22413  eV     1   --> A_1  L_1       
     e(  6 -  7) =      7.74206  eV     2   --> E    L_3       
     e(  8 -  8) =      7.74244  eV     1   --> A_1  L_1       

 **************************************************************************

 **************************************************************************

                    xk=(   0.17577,  -0.17577,   0.17577  )

     Band symmetry, C_3v (3m)   point group:

     e(  1 -  1) =     -7.10426  eV     1   --> A_1  L_1       
     e(  2 -  2) =      4.67366  eV     1   --> A_1  L_1       
     e(  3 -  4) =      5.18983  eV     2   --> E    L_3       
     e(  5 -  5) =      5.28474  eV     1   --> A_1  L_1       
     e(  6 -  7) =      7.74696  eV     2   --> E    L_3       
     e(  8 -  8) =      7.74839  eV     1   --> A_1  L_1       

 **************************************************************************

 **************************************************************************

                    xk=(   0.17694,  -0.17694,   0.17694  )

     Band symmetry, C_3v (3m)   point group:

     e(  1 -  1) =     -7.10151  eV     1   --> A_1  L_1       
     e(  2 -  2) =      4.58260  eV     1   --> A_1  L_1       
     e(  3 -  4) =      5.18406  eV     2   --> E    L_3       
     e(  5 -  5) =      5.35899  eV     1   --> A_1  L_1       
     e(  6 -  7) =      7.75482  eV     2   --> E    L_3       
     e(  8 -  8) =      7.75815  eV     1   --> A_1  L_1       

 **************************************************************************

 **************************************************************************

                    xk=(   0.17811,  -0.17811,   0.17811  )

     Band symmetry, C_3v (3m)   point group:

     e(  1 -  1) =     -7.09770  eV     1   --> A_1  L_1       
     e(  2 -  2) =      4.48088  eV     1   --> A_1  L_1       
     e(  3 -  4) =      5.17617  eV     2   --> E    L_3       
     e(  5 -  5) =      5.43724  eV     1   --> A_1  L_1       
     e(  6 -  7) =      7.76558  eV     2   --> E    L_3       
     e(  8 -  8) =      7.77197  eV     1   --> A_1  L_1       

 **************************************************************************

 **************************************************************************

                    xk=(   0.17928,  -0.17928,   0.17928  )

     Band symmetry, C_3v (3m)   point group:

     e(  1 -  1) =     -7.09285  eV     1   --> A_1  L_1       
     e(  2 -  2) =      4.37286  eV     1   --> A_1  L_1       
     e(  3 -  4) =      5.16622  eV     2   --> E    L_3       
     e(  5 -  5) =      5.51495  eV     1   --> A_1  L_1       
     e(  6 -  7) =      7.77917  eV     2   --> E    L_3       
     e(  8 -  8) =      7.79013  eV     1   --> A_1  L_1       

 **************************************************************************

 **************************************************************************

                    xk=(   0.18046,  -0.18046,   0.18046  )

     Band symmetry, C_3v (3m)   point group:

     e(  1 -  1) =     -7.08695  eV     1   --> A_1  L_1       
     e(  2 -  2) =      4.26070  eV     1   --> A_1  L_1       
     e(  3 -  4) =      5.15431  eV     2   --> E    L_3       
     e(  5 -  5) =      5.58971  eV     1   --> A_1  L_1       
     e(  6 -  7) =      7.79546  eV     2   --> E    L_3       
     e(  8 -  8) =      7.81296  eV     1   --> A_1  L_1       

 **************************************************************************

 **************************************************************************

                    xk=(   0.18163,  -0.18163,   0.18163  )

     Band symmetry, C_3v (3m)   point group:

     e(  1 -  1) =     -7.08000  eV     1   --> A_1  L_1       
     e(  2 -  2) =      4.14558  eV     1   --> A_1  L_1       
     e(  3 -  4) =      5.14052  eV     2   --> E    L_3       
     e(  5 -  5) =      5.66011  eV     1   --> A_1  L_1       
     e(  6 -  7) =      7.81436  eV     2   --> E    L_3       
     e(  8 -  8) =      7.84080  eV     1   --> A_1  L_1       

 **************************************************************************

 **************************************************************************

                    xk=(   0.18280,  -0.18280,   0.18280  )

     Band symmetry, C_3v (3m)   point group:

     e(  1 -  1) =     -7.07201  eV     1   --> A_1  L_1       
     e(  2 -  2) =      4.02826  eV     1   --> A_1  L_1       
     e(  3 -  4) =      5.12496  eV     2   --> E    L_3       
     e(  5 -  5) =      5.72517  eV     1   --> A_1  L_1       
     e(  6 -  7) =      7.83570  eV     2   --> E    L_3       
     e(  8 -  8) =      7.87402  eV     1   --> A_1  L_1       

 **************************************************************************

 **************************************************************************

                    xk=(   0.18397,  -0.18397,   0.18397  )

     Band symmetry, C_3v (3m)   point group:

     e(  1 -  1) =     -7.06298  eV     1   --> A_1  L_1       
     e(  2 -  2) =      3.90924  eV     1   --> A_1  L_1       
     e(  3 -  4) =      5.10776  eV     2   --> E    L_3       
     e(  5 -  5) =      5.78425  eV     1   --> A_1  L_1       
     e(  6 -  7) =      7.85936  eV     2   --> E    L_3       
     e(  8 -  8) =      7.91290  eV     1   --> A_1  L_1       

 **************************************************************************

 **************************************************************************

                    xk=(   0.18514,  -0.18514,   0.18514  )

     Band symmetry, C_3v (3m)   point group:

     e(  1 -  1) =     -7.05290  eV     1   --> A_1  L_1       
     e(  2 -  2) =      3.78888  eV     1   --> A_1  L_1       
     e(  3 -  4) =      5.08902  eV     2   --> E    L_3       
     e(  5 -  5) =      5.83693  eV     1   --> A_1  L_1       
     e(  6 -  7) =      7.88515  eV     2   --> E    L_3       
     e(  8 -  8) =      7.95768  eV     1   --> A_1  L_1       

 **************************************************************************

 **************************************************************************

                    xk=(   0.18632,  -0.18632,   0.18632  )

     Band symmetry, C_3v (3m)   point group:

     e(  1 -  1) =     -7.04180  eV     1   --> A_1  L_1       
     e(  2 -  2) =      3.66745  eV     1   --> A_1  L_1       
     e(  3 -  4) =      5.06888  eV     2   --> E    L_3       
     e(  5 -  5) =      5.88294  eV     1   --> A_1  L_1       
     e(  6 -  7) =      7.91292  eV     2   --> E    L_3       
     e(  8 -  8) =      8.00845  eV     1   --> A_1  L_1       

 **************************************************************************

 **************************************************************************

                    xk=(   0.18749,  -0.18749,   0.18749  )

     Band symmetry, C_3v (3m)   point group:

     e(  1 -  1) =     -7.02965  eV     1   --> A_1  L_1       
     e(  2 -  2) =      3.54519  eV     1   --> A_1  L_1       
     e(  3 -  4) =      5.04745  eV     2   --> E    L_3       
     e(  5 -  5) =      5.92223  eV     1   --> A_1  L_1       
     e(  6 -  7) =      7.94250  eV     2   --> E    L_3       
     e(  8 -  8) =      8.06526  eV     1   --> A_1  L_1       

 **************************************************************************

 **************************************************************************

                    xk=(   0.18866,  -0.18866,   0.18866  )

     Band symmetry, C_3v (3m)   point group:

     e(  1 -  1) =     -7.01648  eV     1   --> A_1  L_1       
     e(  2 -  2) =      3.42228  eV     1   --> A_1  L_1       
     e(  3 -  4) =      5.02487  eV     2   --> E    L_3       
     e(  5 -  5) =      5.95489  eV     1   --> A_1  L_1       
     e(  6 -  7) =      7.97372  eV     2   --> E    L_3       
     e(  8 -  8) =      8.12801  eV     1   --> A_1  L_1       

 **************************************************************************
 
     BANDS        :     3.82s CPU         6.20s WALL

 
   This run was terminated on:   6: 3:45   1Jul2020            

=------------------------------------------------------------------------------=
   JOB DONE.
=------------------------------------------------------------------------------=
