
     Program BANDS v.6.2 starts on  2Jul2020 at 10:55:31 

     This program is part of the open-source Quantum ESPRESSO suite
     for quantum simulation of materials; please cite
         "P. Giannozzi et al., J. Phys.:Condens. Matter 21 395502 (2009);
         "P. Giannozzi et al., J. Phys.:Condens. Matter 29 465901 (2017);
          URL http://www.quantum-espresso.org", 
     in publications or presentations arising from this work. More details at
     http://www.quantum-espresso.org/quote

     Parallel version (MPI), running on    16 processors

     MPI processes distributed on     1 nodes
     R & G space division:  proc/nbgrp/npool/nimage =      16

     Reading data from directory:
     /home/theodoros/PROJ_TUTORIALS/theodoros/Lesson_9/SCF/tmp/scf.save/

     IMPORTANT: XC functional enforced from input :
     Exchange-correlation      = PBE ( 1  4  3  4 0 0)
     Any further DFT definition will be discarded
     Please, verify this is what you really want

 
     Parallelization info
     --------------------
     sticks:   dense  smooth     PW     G-vecs:    dense   smooth      PW
     Min          36      36     12                  573      573     117
     Max          37      37     13                  575      575     120
     Sum         583     583    199                 9185     9185    1893
 
     high-symmetry point:  0.0943 0.0943 0.0943   x coordinate   0.0000
     high-symmetry point:  0.0000 0.0000 0.0000   x coordinate   0.1634
     high-symmetry point:  0.1887 0.1887-0.1887   x coordinate   0.4902

     Plottable bands (eV) written to file bands.dat.gnu
     Bands written to file bands.dat

 **************************************************************************

                    xk=(   0.09433,   0.09433,   0.09433  )

     point group C_3v (3m)  
     there are  3 classes
     the character table:

       E     2C3   3s_v 
A_1    1.00  1.00  1.00
A_2    1.00  1.00 -1.00
E      2.00 -1.00  0.00

     the symmetry operations in each class and the name of the first element:

     E        1
                                                                 
     2C3      2    3
                                                                 
     3s_v     4    5    6
                                                                 

     Band symmetry, C_3v (3m)   point group:

     e(  1 -  1) =     -5.25772  eV     1   --> A_1  L_1       
     e(  2 -  2) =     -2.00430  eV     1   --> A_1  L_1       
     e(  3 -  4) =      3.91541  eV     2   --> E    L_3       
     e(  5 -  5) =      5.24389  eV     1   --> A_1  L_1       
     e(  6 -  7) =      8.90233  eV     2   --> E    L_3       
     e(  8 -  8) =     12.45582  eV     1   --> A_1  L_1       

 **************************************************************************

 **************************************************************************

                    xk=(   0.08759,   0.08759,   0.08759  )

     Band symmetry, C_3v (3m)   point group:

     e(  1 -  1) =     -5.18211  eV     1   --> A_1  L_1       
     e(  2 -  2) =     -2.12554  eV     1   --> A_1  L_1       
     e(  3 -  4) =      3.89981  eV     2   --> E    L_3       
     e(  5 -  5) =      5.22757  eV     1   --> A_1  L_1       
     e(  6 -  7) =      8.89654  eV     2   --> E    L_3       
     e(  8 -  8) =     12.43781  eV     1   --> A_1  L_1       

 **************************************************************************

 **************************************************************************

                    xk=(   0.08085,   0.08085,   0.08085  )

     Band symmetry, C_3v (3m)   point group:

     e(  1 -  1) =     -5.22518  eV     1   --> A_1  L_1       
     e(  2 -  2) =     -2.05693  eV     1   --> A_1  L_1       
     e(  3 -  4) =      3.90854  eV     2   --> E    L_3       
     e(  5 -  5) =      5.23671  eV     1   --> A_1  L_1       
     e(  6 -  7) =      8.89986  eV     2   --> E    L_3       
     e(  8 -  8) =     12.44815  eV     1   --> A_1  L_1       

 **************************************************************************

 **************************************************************************

                    xk=(   0.07412,   0.07412,   0.07412  )

     Band symmetry, C_3v (3m)   point group:

     e(  1 -  1) =     -5.37225  eV     1   --> A_1  L_1       
     e(  2 -  2) =     -1.81332  eV     1   --> A_1  L_1       
     e(  3 -  4) =      3.94153  eV     2   --> E    L_3       
     e(  5 -  5) =      5.27113  eV     1   --> A_1  L_1       
     e(  6 -  7) =      8.91056  eV     2   --> E    L_3       
     e(  8 -  8) =     12.48033  eV     1   --> A_1  L_1       

 **************************************************************************

 **************************************************************************

                    xk=(   0.06738,   0.06738,   0.06738  )

     Band symmetry, C_3v (3m)   point group:

     e(  1 -  1) =     -5.58356  eV     1   --> A_1  L_1       
     e(  2 -  2) =     -1.43496  eV     1   --> A_1  L_1       
     e(  3 -  4) =      3.99846  eV     2   --> E    L_3       
     e(  5 -  5) =      5.33025  eV     1   --> A_1  L_1       
     e(  6 -  7) =      8.92213  eV     2   --> E    L_3       
     e(  8 -  8) =     12.48752  eV     1   --> A_1  L_1       

 **************************************************************************

 **************************************************************************

                    xk=(   0.06064,   0.06064,   0.06064  )

     Band symmetry, C_3v (3m)   point group:

     e(  1 -  1) =     -5.82214  eV     1   --> A_1  L_1       
     e(  2 -  2) =     -0.95978  eV     1   --> A_1  L_1       
     e(  3 -  4) =      4.07877  eV     2   --> E    L_3       
     e(  5 -  5) =      5.41282  eV     1   --> A_1  L_1       
     e(  6 -  7) =      8.92315  eV     2   --> E    L_3       
     e(  8 -  8) =     12.24479  eV     1   --> A_1  L_1       

 **************************************************************************

 **************************************************************************

                    xk=(   0.05390,   0.05390,   0.05390  )

     Band symmetry, C_3v (3m)   point group:

     e(  1 -  1) =     -6.06324  eV     1   --> A_1  L_1       
     e(  2 -  2) =     -0.41392  eV     1   --> A_1  L_1       
     e(  3 -  4) =      4.18143  eV     2   --> E    L_3       
     e(  5 -  5) =      5.51665  eV     1   --> A_1  L_1       
     e(  6 -  7) =      8.89811  eV     2   --> E    L_3       
     e(  8 -  8) =     11.64889  eV     1   --> A_1  L_1       

 **************************************************************************

 **************************************************************************

                    xk=(   0.04716,   0.04716,   0.04716  )

     Band symmetry, C_3v (3m)   point group:

     e(  1 -  1) =     -6.29201  eV     1   --> A_1  L_1       
     e(  2 -  2) =      0.18569  eV     1   --> A_1  L_1       
     e(  3 -  4) =      4.30480  eV     2   --> E    L_3       
     e(  5 -  5) =      5.63784  eV     1   --> A_1  L_1       
     e(  6 -  7) =      8.83073  eV     2   --> E    L_3       
     e(  8 -  8) =     10.96798  eV     1   --> A_1  L_1       

 **************************************************************************

 **************************************************************************

                    xk=(   0.04043,   0.04043,   0.04043  )

     Band symmetry, C_3v (3m)   point group:

     e(  1 -  1) =     -6.49961  eV     1   --> A_1  L_1       
     e(  2 -  2) =      0.82736  eV     1   --> A_1  L_1       
     e(  3 -  4) =      4.44618  eV     2   --> E    L_3       
     e(  5 -  5) =      5.76934  eV     1   --> A_1  L_1       
     e(  6 -  7) =      8.71021  eV     2   --> E    L_3       
     e(  8 -  8) =     10.28528  eV     1   --> A_1  L_1       

 **************************************************************************

 **************************************************************************

                    xk=(   0.03369,   0.03369,   0.03369  )

     Band symmetry, C_3v (3m)   point group:

     e(  1 -  1) =     -6.68071  eV     1   --> A_1  L_1       
     e(  2 -  2) =      1.50177  eV     1   --> A_1  L_1       
     e(  3 -  4) =      4.60133  eV     2   --> E    L_3       
     e(  5 -  5) =      5.89827  eV     1   --> A_1  L_1       
     e(  6 -  7) =      8.53839  eV     2   --> E    L_3       
     e(  8 -  8) =      9.62183  eV     1   --> A_1  L_1       

 **************************************************************************

 **************************************************************************

                    xk=(   0.02695,   0.02695,   0.02695  )

     Band symmetry, C_3v (3m)   point group:

     e(  1 -  1) =     -6.83198  eV     1   --> A_1  L_1       
     e(  2 -  2) =      2.19992  eV     1   --> A_1  L_1       
     e(  3 -  4) =      4.76349  eV     2   --> E    L_3       
     e(  5 -  5) =      5.99976  eV     1   --> A_1  L_1       
     e(  6 -  7) =      8.33137  eV     2   --> E    L_3       
     e(  8 -  8) =      8.99596  eV     1   --> A_1  L_1       

 **************************************************************************

 **************************************************************************

                    xk=(   0.02021,   0.02021,   0.02021  )

     Band symmetry, C_3v (3m)   point group:

     e(  1 -  1) =     -6.95131  eV     1   --> A_1  L_1       
     e(  2 -  2) =      2.91140  eV     1   --> A_1  L_1       
     e(  3 -  4) =      4.92203  eV     2   --> E    L_3       
     e(  5 -  5) =      6.02586  eV     1   --> A_1  L_1       
     e(  6 -  7) =      8.11583  eV     2   --> E    L_3       
     e(  8 -  8) =      8.44358  eV     1   --> A_1  L_1       

 **************************************************************************

 **************************************************************************

                    xk=(   0.01348,   0.01348,   0.01348  )

     Band symmetry, C_3v (3m)   point group:

     e(  1 -  1) =     -7.03735  eV     1   --> A_1  L_1       
     e(  2 -  2) =      3.62159  eV     1   --> A_1  L_1       
     e(  3 -  4) =      5.06097  eV     2   --> E    L_3       
     e(  5 -  5) =      5.89850  eV     1   --> A_1  L_1       
     e(  6 -  7) =      7.92384  eV     2   --> E    L_3       
     e(  8 -  8) =      8.02910  eV     1   --> A_1  L_1       

 **************************************************************************

 **************************************************************************

                    xk=(   0.00674,   0.00674,   0.00674  )

     Band symmetry, C_3v (3m)   point group:

     e(  1 -  1) =     -7.08928  eV     1   --> A_1  L_1       
     e(  2 -  2) =      4.30307  eV     1   --> A_1  L_1       
     e(  3 -  4) =      5.15899  eV     2   --> E    L_3       
     e(  5 -  5) =      5.56218  eV     1   --> A_1  L_1       
     e(  6 -  7) =      7.78905  eV     2   --> E    L_3       
     e(  8 -  8) =      7.80385  eV     1   --> A_1  L_1       

 **************************************************************************

 **************************************************************************

                    xk=(   0.00000,   0.00000,   0.00000  )

     point group T_d (-43m) 
     there are  5 classes
     the character table:

       E     8C3   3C2   6S4   6s_d 
A_1    1.00  1.00  1.00  1.00  1.00
A_2    1.00  1.00  1.00 -1.00 -1.00
E      2.00 -1.00  2.00  0.00  0.00
T_1    3.00  0.00 -1.00  1.00 -1.00
T_2    3.00  0.00 -1.00 -1.00  1.00

     the symmetry operations in each class and the name of the first element:

     E        1
                                                                 
     8C3      5    7    8    6   12    9   10   11
                                                                 
     3C2      2    3    4
                                                                 
     6S4     15   16   20   19   23   24
                                                                 
     6s_d    13   14   17   18   21   22
                                                                 

     Band symmetry, T_d (-43m)  point group:

     e(  1 -  1) =     -7.10663  eV     1   --> A_1  G_1  P_1  
     e(  2 -  2) =      4.77790  eV     1   --> A_1  G_1  P_1  
     e(  3 -  5) =      5.19483  eV     3   --> T_2  G_15 P_4  
     e(  6 -  8) =      7.74015  eV     3   --> T_2  G_15 P_4  

 **************************************************************************

 **************************************************************************

                    xk=(   0.01179,   0.01179,  -0.01179  )

     point group C_3v (3m)  
     there are  3 classes
     the character table:

       E     2C3   3s_v 
A_1    1.00  1.00  1.00
A_2    1.00  1.00 -1.00
E      2.00 -1.00  0.00

     the symmetry operations in each class and the name of the first element:

     E        1
                                                                 
     2C3      2    3
                                                                 
     3s_v     4    5    6
                                                                 

     Band symmetry, C_3v (3m)   point group:

     e(  1 -  1) =     -7.05356  eV     1   --> A_1  L_1       
     e(  2 -  2) =      3.79634  eV     1   --> A_1  L_1       
     e(  3 -  4) =      5.09022  eV     2   --> E    L_3       
     e(  5 -  5) =      5.83387  eV     1   --> A_1  L_1       
     e(  6 -  7) =      7.88350  eV     2   --> E    L_3       
     e(  8 -  8) =      7.95474  eV     1   --> A_1  L_1       

 **************************************************************************

 **************************************************************************

                    xk=(   0.02358,   0.02358,  -0.02358  )

     Band symmetry, C_3v (3m)   point group:

     e(  1 -  1) =     -6.89574  eV     1   --> A_1  L_1       
     e(  2 -  2) =      2.55476  eV     1   --> A_1  L_1       
     e(  3 -  4) =      4.84407  eV     2   --> E    L_3       
     e(  5 -  5) =      6.02652  eV     1   --> A_1  L_1       
     e(  6 -  7) =      8.22274  eV     2   --> E    L_3       
     e(  8 -  8) =      8.70718  eV     1   --> A_1  L_1       

 **************************************************************************

 **************************************************************************

                    xk=(   0.03537,   0.03537,  -0.03537  )

     Band symmetry, C_3v (3m)   point group:

     e(  1 -  1) =     -6.63813  eV     1   --> A_1  L_1       
     e(  2 -  2) =      1.33058  eV     1   --> A_1  L_1       
     e(  3 -  4) =      4.56157  eV     2   --> E    L_3       
     e(  5 -  5) =      5.86735  eV     1   --> A_1  L_1       
     e(  6 -  7) =      8.58550  eV     2   --> E    L_3       
     e(  8 -  8) =      9.78505  eV     1   --> A_1  L_1       

 **************************************************************************

 **************************************************************************

                    xk=(   0.04716,   0.04716,  -0.04716  )

     Band symmetry, C_3v (3m)   point group:

     e(  1 -  1) =     -6.29201  eV     1   --> A_1  L_1       
     e(  2 -  2) =      0.18569  eV     1   --> A_1  L_1       
     e(  3 -  4) =      4.30480  eV     2   --> E    L_3       
     e(  5 -  5) =      5.63784  eV     1   --> A_1  L_1       
     e(  6 -  7) =      8.83073  eV     2   --> E    L_3       
     e(  8 -  8) =     10.96798  eV     1   --> A_1  L_1       

 **************************************************************************

 **************************************************************************

                    xk=(   0.05896,   0.05896,  -0.05896  )

     Band symmetry, C_3v (3m)   point group:

     e(  1 -  1) =     -5.88290  eV     1   --> A_1  L_1       
     e(  2 -  2) =     -0.82915  eV     1   --> A_1  L_1       
     e(  3 -  4) =      4.10239  eV     2   --> E    L_3       
     e(  5 -  5) =      5.43691  eV     1   --> A_1  L_1       
     e(  6 -  7) =      8.92000  eV     2   --> E    L_3       
     e(  8 -  8) =     12.11613  eV     1   --> A_1  L_1       

 **************************************************************************

 **************************************************************************

                    xk=(   0.07075,   0.07075,  -0.07075  )

     Band symmetry, C_3v (3m)   point group:

     e(  1 -  1) =     -5.47246  eV     1   --> A_1  L_1       
     e(  2 -  2) =     -1.63835  eV     1   --> A_1  L_1       
     e(  3 -  4) =      3.96702  eV     2   --> E    L_3       
     e(  5 -  5) =      5.29766  eV     1   --> A_1  L_1       
     e(  6 -  7) =      8.91683  eV     2   --> E    L_3       
     e(  8 -  8) =     12.49408  eV     1   --> A_1  L_1       

 **************************************************************************

 **************************************************************************

                    xk=(   0.08254,   0.08254,  -0.08254  )

     Band symmetry, C_3v (3m)   point group:

     e(  1 -  1) =     -5.20341  eV     1   --> A_1  L_1       
     e(  2 -  2) =     -2.09175  eV     1   --> A_1  L_1       
     e(  3 -  4) =      3.90408  eV     2   --> E    L_3       
     e(  5 -  5) =      5.23204  eV     1   --> A_1  L_1       
     e(  6 -  7) =      8.89819  eV     2   --> E    L_3       
     e(  8 -  8) =     12.44294  eV     1   --> A_1  L_1       

 **************************************************************************

 **************************************************************************

                    xk=(   0.09433,   0.09433,  -0.09433  )

     Band symmetry, C_3v (3m)   point group:

     e(  1 -  1) =     -5.25772  eV     1   --> A_1  L_1       
     e(  2 -  2) =     -2.00430  eV     1   --> A_1  L_1       
     e(  3 -  4) =      3.91541  eV     2   --> E    L_3       
     e(  5 -  5) =      5.24389  eV     1   --> A_1  L_1       
     e(  6 -  7) =      8.90233  eV     2   --> E    L_3       
     e(  8 -  8) =     12.45582  eV     1   --> A_1  L_1       

 **************************************************************************

 **************************************************************************

                    xk=(   0.10612,   0.10612,  -0.10612  )

     Band symmetry, C_3v (3m)   point group:

     e(  1 -  1) =     -5.59105  eV     1   --> A_1  L_1       
     e(  2 -  2) =     -1.42088  eV     1   --> A_1  L_1       
     e(  3 -  4) =      4.00070  eV     2   --> E    L_3       
     e(  5 -  5) =      5.33257  eV     1   --> A_1  L_1       
     e(  6 -  7) =      8.92240  eV     2   --> E    L_3       
     e(  8 -  8) =     12.48563  eV     1   --> A_1  L_1       

 **************************************************************************

 **************************************************************************

                    xk=(   0.11791,   0.11791,  -0.11791  )

     Band symmetry, C_3v (3m)   point group:

     e(  1 -  1) =     -6.01145  eV     1   --> A_1  L_1       
     e(  2 -  2) =     -0.53772  eV     1   --> A_1  L_1       
     e(  3 -  4) =      4.15727  eV     2   --> E    L_3       
     e(  5 -  5) =      5.49242  eV     1   --> A_1  L_1       
     e(  6 -  7) =      8.90663  eV     2   --> E    L_3       
     e(  8 -  8) =     11.79181  eV     1   --> A_1  L_1       

 **************************************************************************

 **************************************************************************

                    xk=(   0.12970,   0.12970,  -0.12970  )

     Band symmetry, C_3v (3m)   point group:

     e(  1 -  1) =     -6.40558  eV     1   --> A_1  L_1       
     e(  2 -  2) =      0.52275  eV     1   --> A_1  L_1       
     e(  3 -  4) =      4.37806  eV     2   --> E    L_3       
     e(  5 -  5) =      5.70721  eV     1   --> A_1  L_1       
     e(  6 -  7) =      8.77340  eV     2   --> E    L_3       
     e(  8 -  8) =     10.60299  eV     1   --> A_1  L_1       

 **************************************************************************

 **************************************************************************

                    xk=(   0.14149,   0.14149,  -0.14149  )

     Band symmetry, C_3v (3m)   point group:

     e(  1 -  1) =     -6.72657  eV     1   --> A_1  L_1       
     e(  2 -  2) =      1.69697  eV     1   --> A_1  L_1       
     e(  3 -  4) =      4.64680  eV     2   --> E    L_3       
     e(  5 -  5) =      5.93123  eV     1   --> A_1  L_1       
     e(  6 -  7) =      8.48247  eV     2   --> E    L_3       
     e(  8 -  8) =      9.44015  eV     1   --> A_1  L_1       

 **************************************************************************

 **************************************************************************

                    xk=(   0.15329,   0.15329,  -0.15329  )

     Band symmetry, C_3v (3m)   point group:

     e(  1 -  1) =     -6.95463  eV     1   --> A_1  L_1       
     e(  2 -  2) =      2.93457  eV     1   --> A_1  L_1       
     e(  3 -  4) =      4.92695  eV     2   --> E    L_3       
     e(  5 -  5) =      6.02462  eV     1   --> A_1  L_1       
     e(  6 -  7) =      8.10905  eV     2   --> E    L_3       
     e(  8 -  8) =      8.42755  eV     1   --> A_1  L_1       

 **************************************************************************

 **************************************************************************

                    xk=(   0.16508,   0.16508,  -0.16508  )

     Band symmetry, C_3v (3m)   point group:

     e(  1 -  1) =     -7.08092  eV     1   --> A_1  L_1       
     e(  2 -  2) =      4.15992  eV     1   --> A_1  L_1       
     e(  3 -  4) =      5.14232  eV     2   --> E    L_3       
     e(  5 -  5) =      5.65169  eV     1   --> A_1  L_1       
     e(  6 -  7) =      7.81189  eV     2   --> E    L_3       
     e(  8 -  8) =      7.83708  eV     1   --> A_1  L_1       

 **************************************************************************

 **************************************************************************

                    xk=(   0.17687,   0.17687,  -0.17687  )

     Band symmetry, C_3v (3m)   point group:

     e(  1 -  1) =     -7.10171  eV     1   --> A_1  L_1       
     e(  2 -  2) =      4.58867  eV     1   --> A_1  L_1       
     e(  3 -  4) =      5.18448  eV     2   --> E    L_3       
     e(  5 -  5) =      5.35416  eV     1   --> A_1  L_1       
     e(  6 -  7) =      7.75424  eV     2   --> E    L_3       
     e(  8 -  8) =      7.75743  eV     1   --> A_1  L_1       

 **************************************************************************

 **************************************************************************

                    xk=(   0.18866,   0.18866,  -0.18866  )

     Band symmetry, C_3v (3m)   point group:

     e(  1 -  1) =     -7.01648  eV     1   --> A_1  L_1       
     e(  2 -  2) =      3.42228  eV     1   --> A_1  L_1       
     e(  3 -  4) =      5.02487  eV     2   --> E    L_3       
     e(  5 -  5) =      5.95489  eV     1   --> A_1  L_1       
     e(  6 -  7) =      7.97372  eV     2   --> E    L_3       
     e(  8 -  8) =      8.12801  eV     1   --> A_1  L_1       

 **************************************************************************
 
     BANDS        :     0.81s CPU         3.52s WALL

 
   This run was terminated on:  10:55:35   2Jul2020            

=------------------------------------------------------------------------------=
   JOB DONE.
=------------------------------------------------------------------------------=
