
     Program BANDS v.6.2 starts on 16Sep2020 at 17:21:30 

     This program is part of the open-source Quantum ESPRESSO suite
     for quantum simulation of materials; please cite
         "P. Giannozzi et al., J. Phys.:Condens. Matter 21 395502 (2009);
         "P. Giannozzi et al., J. Phys.:Condens. Matter 29 465901 (2017);
          URL http://www.quantum-espresso.org", 
     in publications or presentations arising from this work. More details at
     http://www.quantum-espresso.org/quote

     Parallel version (MPI), running on    32 processors

     MPI processes distributed on     2 nodes
     R & G space division:  proc/nbgrp/npool/nimage =      32

     Reading data from directory:
     /home/theodoros/PROJ_TUTORIALS/theodoros/Ge_final_bulk_DFT_U/Lesson_9/SCF/tmp/scf.save/

     IMPORTANT: XC functional enforced from input :
     Exchange-correlation      = PBE ( 1  4  3  4 0 0)
     Any further DFT definition will be discarded
     Please, verify this is what you really want

 
     Parallelization info
     --------------------
     sticks:   dense  smooth     PW     G-vecs:    dense   smooth      PW
     Min          19      19      5                  323      323      50
     Max          20      20      6                  325      325      55
     Sum         637     637    187                10369    10369    1687
 

     WARNING: hubbard_l =  1 is set
     high-symmetry point:  0.0887 0.0887 0.0887   x coordinate   0.0000
     high-symmetry point:  0.0000 0.0000 0.0000   x coordinate   0.1537
     high-symmetry point:  0.1774 0.0000 0.0000   x coordinate   0.3311

     Plottable bands (eV) written to file bands.dat.gnu
     Bands written to file bands.dat

 **************************************************************************

                    xk=(   0.08872,   0.08872,   0.08872  )

     zone border point and non-symmorphic group 
     symmetry decomposition not available

 **************************************************************************

 **************************************************************************

                    xk=(   0.08839,   0.08839,   0.08839  )

     point group C_3v (3m)  
     there are  3 classes
     the character table:

       E     2C3   3s_v 
A_1    1.00  1.00  1.00
A_2    1.00  1.00 -1.00
E      2.00 -1.00  0.00

     the symmetry operations in each class and the name of the first element:

     E        1
                                                                 
     2C3      2    3
                                                                 
     3s_v     4    5    6
                                                                 

     Band symmetry, C_3v (3m)   point group:

     e(  1 -  1) =     -5.12371  eV     1   --> A_1  L_1       
     e(  2 -  2) =     -3.11561  eV     1   --> A_1  L_1       
     e(  3 -  4) =      4.08728  eV     2   --> E    L_3       
     e(  5 -  5) =      5.86703  eV     1   --> A_1  L_1       
     e(  6 -  7) =      9.52484  eV     2   --> E    L_3       

 **************************************************************************

 **************************************************************************

                    xk=(   0.08807,   0.08807,   0.08807  )

     Band symmetry, C_3v (3m)   point group:

     e(  1 -  1) =     -5.12477  eV     1   --> A_1  L_1       
     e(  2 -  2) =     -3.11422  eV     1   --> A_1  L_1       
     e(  3 -  4) =      4.08737  eV     2   --> E    L_3       
     e(  5 -  5) =      5.86713  eV     1   --> A_1  L_1       
     e(  6 -  7) =      9.52488  eV     2   --> E    L_3       

 **************************************************************************

 **************************************************************************

                    xk=(   0.08775,   0.08775,   0.08775  )

     Band symmetry, C_3v (3m)   point group:

     e(  1 -  1) =     -5.12654  eV     1   --> A_1  L_1       
     e(  2 -  2) =     -3.11190  eV     1   --> A_1  L_1       
     e(  3 -  4) =      4.08753  eV     2   --> E    L_3       
     e(  5 -  5) =      5.86728  eV     1   --> A_1  L_1       
     e(  6 -  7) =      9.52495  eV     2   --> E    L_3       

 **************************************************************************

 **************************************************************************

                    xk=(   0.08742,   0.08742,   0.08742  )

     Band symmetry, C_3v (3m)   point group:

     e(  1 -  1) =     -5.12900  eV     1   --> A_1  L_1       
     e(  2 -  2) =     -3.10866  eV     1   --> A_1  L_1       
     e(  3 -  4) =      4.08775  eV     2   --> E    L_3       
     e(  5 -  5) =      5.86750  eV     1   --> A_1  L_1       
     e(  6 -  7) =      9.52504  eV     2   --> E    L_3       

 **************************************************************************

 **************************************************************************

                    xk=(   0.08710,   0.08710,   0.08710  )

     Band symmetry, C_3v (3m)   point group:

     e(  1 -  1) =     -5.13216  eV     1   --> A_1  L_1       
     e(  2 -  2) =     -3.10451  eV     1   --> A_1  L_1       
     e(  3 -  4) =      4.08802  eV     2   --> E    L_3       
     e(  5 -  5) =      5.86778  eV     1   --> A_1  L_1       
     e(  6 -  7) =      9.52516  eV     2   --> E    L_3       

 **************************************************************************

 **************************************************************************

                    xk=(   0.08678,   0.08678,   0.08678  )

     Band symmetry, C_3v (3m)   point group:

     e(  1 -  1) =     -5.13600  eV     1   --> A_1  L_1       
     e(  2 -  2) =     -3.09945  eV     1   --> A_1  L_1       
     e(  3 -  4) =      4.08836  eV     2   --> E    L_3       
     e(  5 -  5) =      5.86812  eV     1   --> A_1  L_1       
     e(  6 -  7) =      9.52531  eV     2   --> E    L_3       

 **************************************************************************

 **************************************************************************

                    xk=(   0.08646,   0.08646,   0.08646  )

     Band symmetry, C_3v (3m)   point group:

     e(  1 -  1) =     -5.14051  eV     1   --> A_1  L_1       
     e(  2 -  2) =     -3.09350  eV     1   --> A_1  L_1       
     e(  3 -  4) =      4.08876  eV     2   --> E    L_3       
     e(  5 -  5) =      5.86854  eV     1   --> A_1  L_1       
     e(  6 -  7) =      9.52549  eV     2   --> E    L_3       

 **************************************************************************

 **************************************************************************

                    xk=(   0.08613,   0.08613,   0.08613  )

     Band symmetry, C_3v (3m)   point group:

     e(  1 -  1) =     -5.14568  eV     1   --> A_1  L_1       
     e(  2 -  2) =     -3.08668  eV     1   --> A_1  L_1       
     e(  3 -  4) =      4.08923  eV     2   --> E    L_3       
     e(  5 -  5) =      5.86900  eV     1   --> A_1  L_1       
     e(  6 -  7) =      9.52569  eV     2   --> E    L_3       

 **************************************************************************

 **************************************************************************

                    xk=(   0.08581,   0.08581,   0.08581  )

     Band symmetry, C_3v (3m)   point group:

     e(  1 -  1) =     -5.15149  eV     1   --> A_1  L_1       
     e(  2 -  2) =     -3.07898  eV     1   --> A_1  L_1       
     e(  3 -  4) =      4.08975  eV     2   --> E    L_3       
     e(  5 -  5) =      5.86953  eV     1   --> A_1  L_1       
     e(  6 -  7) =      9.52591  eV     2   --> E    L_3       

 **************************************************************************

 **************************************************************************

                    xk=(   0.08549,   0.08549,   0.08549  )

     Band symmetry, C_3v (3m)   point group:

     e(  1 -  1) =     -5.15794  eV     1   --> A_1  L_1       
     e(  2 -  2) =     -3.07044  eV     1   --> A_1  L_1       
     e(  3 -  4) =      4.09033  eV     2   --> E    L_3       
     e(  5 -  5) =      5.87012  eV     1   --> A_1  L_1       
     e(  6 -  7) =      9.52616  eV     2   --> E    L_3       

 **************************************************************************

 **************************************************************************

                    xk=(   0.08517,   0.08517,   0.08517  )

     Band symmetry, C_3v (3m)   point group:

     e(  1 -  1) =     -5.16500  eV     1   --> A_1  L_1       
     e(  2 -  2) =     -3.06106  eV     1   --> A_1  L_1       
     e(  3 -  4) =      4.09097  eV     2   --> E    L_3       
     e(  5 -  5) =      5.87078  eV     1   --> A_1  L_1       
     e(  6 -  7) =      9.52644  eV     2   --> E    L_3       

 **************************************************************************

 **************************************************************************

                    xk=(   0.08484,   0.08484,   0.08484  )

     Band symmetry, C_3v (3m)   point group:

     e(  1 -  1) =     -5.17265  eV     1   --> A_1  L_1       
     e(  2 -  2) =     -3.05086  eV     1   --> A_1  L_1       
     e(  3 -  4) =      4.09168  eV     2   --> E    L_3       
     e(  5 -  5) =      5.87149  eV     1   --> A_1  L_1       
     e(  6 -  7) =      9.52675  eV     2   --> E    L_3       

 **************************************************************************

 **************************************************************************

                    xk=(   0.08452,   0.08452,   0.08452  )

     Band symmetry, C_3v (3m)   point group:

     e(  1 -  1) =     -5.18088  eV     1   --> A_1  L_1       
     e(  2 -  2) =     -3.03987  eV     1   --> A_1  L_1       
     e(  3 -  4) =      4.09245  eV     2   --> E    L_3       
     e(  5 -  5) =      5.87227  eV     1   --> A_1  L_1       
     e(  6 -  7) =      9.52708  eV     2   --> E    L_3       

 **************************************************************************

 **************************************************************************

                    xk=(   0.08420,   0.08420,   0.08420  )

     Band symmetry, C_3v (3m)   point group:

     e(  1 -  1) =     -5.18966  eV     1   --> A_1  L_1       
     e(  2 -  2) =     -3.02810  eV     1   --> A_1  L_1       
     e(  3 -  4) =      4.09328  eV     2   --> E    L_3       
     e(  5 -  5) =      5.87311  eV     1   --> A_1  L_1       
     e(  6 -  7) =      9.52743  eV     2   --> E    L_3       

 **************************************************************************

 **************************************************************************

                    xk=(   0.08388,   0.08388,   0.08388  )

     Band symmetry, C_3v (3m)   point group:

     e(  1 -  1) =     -5.19898  eV     1   --> A_1  L_1       
     e(  2 -  2) =     -3.01557  eV     1   --> A_1  L_1       
     e(  3 -  4) =      4.09416  eV     2   --> E    L_3       
     e(  5 -  5) =      5.87401  eV     1   --> A_1  L_1       
     e(  6 -  7) =      9.52781  eV     2   --> E    L_3       

 **************************************************************************

 **************************************************************************

                    xk=(   0.08355,   0.08355,   0.08355  )

     Band symmetry, C_3v (3m)   point group:

     e(  1 -  1) =     -5.20882  eV     1   --> A_1  L_1       
     e(  2 -  2) =     -3.00231  eV     1   --> A_1  L_1       
     e(  3 -  4) =      4.09512  eV     2   --> E    L_3       
     e(  5 -  5) =      5.87498  eV     1   --> A_1  L_1       
     e(  6 -  7) =      9.52821  eV     2   --> E    L_3       

 **************************************************************************

 **************************************************************************

                    xk=(   0.08323,   0.08323,   0.08323  )

     Band symmetry, C_3v (3m)   point group:

     e(  1 -  1) =     -5.21915  eV     1   --> A_1  L_1       
     e(  2 -  2) =     -2.98833  eV     1   --> A_1  L_1       
     e(  3 -  4) =      4.09613  eV     2   --> E    L_3       
     e(  5 -  5) =      5.87601  eV     1   --> A_1  L_1       
     e(  6 -  7) =      9.52864  eV     2   --> E    L_3       

 **************************************************************************

 **************************************************************************

                    xk=(   0.08291,   0.08291,   0.08291  )

     Band symmetry, C_3v (3m)   point group:

     e(  1 -  1) =     -5.22996  eV     1   --> A_1  L_1       
     e(  2 -  2) =     -2.97365  eV     1   --> A_1  L_1       
     e(  3 -  4) =      4.09720  eV     2   --> E    L_3       
     e(  5 -  5) =      5.87709  eV     1   --> A_1  L_1       
     e(  6 -  7) =      9.52909  eV     2   --> E    L_3       

 **************************************************************************

 **************************************************************************

                    xk=(   0.08259,   0.08259,   0.08259  )

     Band symmetry, C_3v (3m)   point group:

     e(  1 -  1) =     -5.24121  eV     1   --> A_1  L_1       
     e(  2 -  2) =     -2.95830  eV     1   --> A_1  L_1       
     e(  3 -  4) =      4.09834  eV     2   --> E    L_3       
     e(  5 -  5) =      5.87824  eV     1   --> A_1  L_1       
     e(  6 -  7) =      9.52956  eV     2   --> E    L_3       

 **************************************************************************

 **************************************************************************

                    xk=(   0.08226,   0.08226,   0.08226  )

     Band symmetry, C_3v (3m)   point group:

     e(  1 -  1) =     -5.25290  eV     1   --> A_1  L_1       
     e(  2 -  2) =     -2.94230  eV     1   --> A_1  L_1       
     e(  3 -  4) =      4.09953  eV     2   --> E    L_3       
     e(  5 -  5) =      5.87946  eV     1   --> A_1  L_1       
     e(  6 -  7) =      9.53006  eV     2   --> E    L_3       

 **************************************************************************

 **************************************************************************

                    xk=(   0.08194,   0.08194,   0.08194  )

     Band symmetry, C_3v (3m)   point group:

     e(  1 -  1) =     -5.26500  eV     1   --> A_1  L_1       
     e(  2 -  2) =     -2.92566  eV     1   --> A_1  L_1       
     e(  3 -  4) =      4.10079  eV     2   --> E    L_3       
     e(  5 -  5) =      5.88073  eV     1   --> A_1  L_1       
     e(  6 -  7) =      9.53058  eV     2   --> E    L_3       

 **************************************************************************

 **************************************************************************

                    xk=(   0.08162,   0.08162,   0.08162  )

     Band symmetry, C_3v (3m)   point group:

     e(  1 -  1) =     -5.27749  eV     1   --> A_1  L_1       
     e(  2 -  2) =     -2.90841  eV     1   --> A_1  L_1       
     e(  3 -  4) =      4.10211  eV     2   --> E    L_3       
     e(  5 -  5) =      5.88207  eV     1   --> A_1  L_1       
     e(  6 -  7) =      9.53111  eV     2   --> E    L_3       

 **************************************************************************

 **************************************************************************

                    xk=(   0.08130,   0.08130,   0.08130  )

     Band symmetry, C_3v (3m)   point group:

     e(  1 -  1) =     -5.29034  eV     1   --> A_1  L_1       
     e(  2 -  2) =     -2.89058  eV     1   --> A_1  L_1       
     e(  3 -  4) =      4.10349  eV     2   --> E    L_3       
     e(  5 -  5) =      5.88347  eV     1   --> A_1  L_1       
     e(  6 -  7) =      9.53168  eV     2   --> E    L_3       

 **************************************************************************

 **************************************************************************

                    xk=(   0.08097,   0.08097,   0.08097  )

     Band symmetry, C_3v (3m)   point group:

     e(  1 -  1) =     -5.30354  eV     1   --> A_1  L_1       
     e(  2 -  2) =     -2.87217  eV     1   --> A_1  L_1       
     e(  3 -  4) =      4.10493  eV     2   --> E    L_3       
     e(  5 -  5) =      5.88493  eV     1   --> A_1  L_1       
     e(  6 -  7) =      9.53226  eV     2   --> E    L_3       

 **************************************************************************

 **************************************************************************

                    xk=(   0.08065,   0.08065,   0.08065  )

     Band symmetry, C_3v (3m)   point group:

     e(  1 -  1) =     -5.31708  eV     1   --> A_1  L_1       
     e(  2 -  2) =     -2.85321  eV     1   --> A_1  L_1       
     e(  3 -  4) =      4.10643  eV     2   --> E    L_3       
     e(  5 -  5) =      5.88645  eV     1   --> A_1  L_1       
     e(  6 -  7) =      9.53286  eV     2   --> E    L_3       

 **************************************************************************

 **************************************************************************

                    xk=(   0.08033,   0.08033,   0.08033  )

     Band symmetry, C_3v (3m)   point group:

     e(  1 -  1) =     -5.33092  eV     1   --> A_1  L_1       
     e(  2 -  2) =     -2.83371  eV     1   --> A_1  L_1       
     e(  3 -  4) =      4.10799  eV     2   --> E    L_3       
     e(  5 -  5) =      5.88804  eV     1   --> A_1  L_1       
     e(  6 -  7) =      9.53348  eV     2   --> E    L_3       

 **************************************************************************

 **************************************************************************

                    xk=(   0.08001,   0.08001,   0.08001  )

     Band symmetry, C_3v (3m)   point group:

     e(  1 -  1) =     -5.34505  eV     1   --> A_1  L_1       
     e(  2 -  2) =     -2.81371  eV     1   --> A_1  L_1       
     e(  3 -  4) =      4.10961  eV     2   --> E    L_3       
     e(  5 -  5) =      5.88968  eV     1   --> A_1  L_1       
     e(  6 -  7) =      9.53412  eV     2   --> E    L_3       

 **************************************************************************

 **************************************************************************

                    xk=(   0.07968,   0.07968,   0.07968  )

     Band symmetry, C_3v (3m)   point group:

     e(  1 -  1) =     -5.35946  eV     1   --> A_1  L_1       
     e(  2 -  2) =     -2.79320  eV     1   --> A_1  L_1       
     e(  3 -  4) =      4.11130  eV     2   --> E    L_3       
     e(  5 -  5) =      5.89139  eV     1   --> A_1  L_1       
     e(  6 -  7) =      9.53477  eV     2   --> E    L_3       

 **************************************************************************

 **************************************************************************

                    xk=(   0.07936,   0.07936,   0.07936  )

     Band symmetry, C_3v (3m)   point group:

     e(  1 -  1) =     -5.37412  eV     1   --> A_1  L_1       
     e(  2 -  2) =     -2.77222  eV     1   --> A_1  L_1       
     e(  3 -  4) =      4.11304  eV     2   --> E    L_3       
     e(  5 -  5) =      5.89316  eV     1   --> A_1  L_1       
     e(  6 -  7) =      9.53545  eV     2   --> E    L_3       

 **************************************************************************

 **************************************************************************

                    xk=(   0.07904,   0.07904,   0.07904  )

     Band symmetry, C_3v (3m)   point group:

     e(  1 -  1) =     -5.38902  eV     1   --> A_1  L_1       
     e(  2 -  2) =     -2.75078  eV     1   --> A_1  L_1       
     e(  3 -  4) =      4.11485  eV     2   --> E    L_3       
     e(  5 -  5) =      5.89500  eV     1   --> A_1  L_1       
     e(  6 -  7) =      9.53614  eV     2   --> E    L_3       

 **************************************************************************

 **************************************************************************

                    xk=(   0.07871,   0.07871,   0.07871  )

     Band symmetry, C_3v (3m)   point group:

     e(  1 -  1) =     -5.40414  eV     1   --> A_1  L_1       
     e(  2 -  2) =     -2.72889  eV     1   --> A_1  L_1       
     e(  3 -  4) =      4.11672  eV     2   --> E    L_3       
     e(  5 -  5) =      5.89689  eV     1   --> A_1  L_1       
     e(  6 -  7) =      9.53685  eV     2   --> E    L_3       

 **************************************************************************

 **************************************************************************

                    xk=(   0.07839,   0.07839,   0.07839  )

     Band symmetry, C_3v (3m)   point group:

     e(  1 -  1) =     -5.41946  eV     1   --> A_1  L_1       
     e(  2 -  2) =     -2.70658  eV     1   --> A_1  L_1       
     e(  3 -  4) =      4.11864  eV     2   --> E    L_3       
     e(  5 -  5) =      5.89885  eV     1   --> A_1  L_1       
     e(  6 -  7) =      9.53757  eV     2   --> E    L_3       

 **************************************************************************

 **************************************************************************

                    xk=(   0.07807,   0.07807,   0.07807  )

     Band symmetry, C_3v (3m)   point group:

     e(  1 -  1) =     -5.43498  eV     1   --> A_1  L_1       
     e(  2 -  2) =     -2.68385  eV     1   --> A_1  L_1       
     e(  3 -  4) =      4.12063  eV     2   --> E    L_3       
     e(  5 -  5) =      5.90086  eV     1   --> A_1  L_1       
     e(  6 -  7) =      9.53831  eV     2   --> E    L_3       

 **************************************************************************

 **************************************************************************

                    xk=(   0.07775,   0.07775,   0.07775  )

     Band symmetry, C_3v (3m)   point group:

     e(  1 -  1) =     -5.45066  eV     1   --> A_1  L_1       
     e(  2 -  2) =     -2.66072  eV     1   --> A_1  L_1       
     e(  3 -  4) =      4.12268  eV     2   --> E    L_3       
     e(  5 -  5) =      5.90294  eV     1   --> A_1  L_1       
     e(  6 -  7) =      9.53906  eV     2   --> E    L_3       

 **************************************************************************

 **************************************************************************

                    xk=(   0.07742,   0.07742,   0.07742  )

     Band symmetry, C_3v (3m)   point group:

     e(  1 -  1) =     -5.46651  eV     1   --> A_1  L_1       
     e(  2 -  2) =     -2.63720  eV     1   --> A_1  L_1       
     e(  3 -  4) =      4.12479  eV     2   --> E    L_3       
     e(  5 -  5) =      5.90509  eV     1   --> A_1  L_1       
     e(  6 -  7) =      9.53982  eV     2   --> E    L_3       

 **************************************************************************

 **************************************************************************

                    xk=(   0.07710,   0.07710,   0.07710  )

     Band symmetry, C_3v (3m)   point group:

     e(  1 -  1) =     -5.48250  eV     1   --> A_1  L_1       
     e(  2 -  2) =     -2.61331  eV     1   --> A_1  L_1       
     e(  3 -  4) =      4.12696  eV     2   --> E    L_3       
     e(  5 -  5) =      5.90729  eV     1   --> A_1  L_1       
     e(  6 -  7) =      9.54060  eV     2   --> E    L_3       

 **************************************************************************

 **************************************************************************

                    xk=(   0.07678,   0.07678,   0.07678  )

     Band symmetry, C_3v (3m)   point group:

     e(  1 -  1) =     -5.49863  eV     1   --> A_1  L_1       
     e(  2 -  2) =     -2.58907  eV     1   --> A_1  L_1       
     e(  3 -  4) =      4.12919  eV     2   --> E    L_3       
     e(  5 -  5) =      5.90955  eV     1   --> A_1  L_1       
     e(  6 -  7) =      9.54138  eV     2   --> E    L_3       

 **************************************************************************

 **************************************************************************

                    xk=(   0.07646,   0.07646,   0.07646  )

     Band symmetry, C_3v (3m)   point group:

     e(  1 -  1) =     -5.51491  eV     1   --> A_1  L_1       
     e(  2 -  2) =     -2.56448  eV     1   --> A_1  L_1       
     e(  3 -  4) =      4.13148  eV     2   --> E    L_3       
     e(  5 -  5) =      5.91188  eV     1   --> A_1  L_1       
     e(  6 -  7) =      9.54217  eV     2   --> E    L_3       

 **************************************************************************

 **************************************************************************

                    xk=(   0.07613,   0.07613,   0.07613  )

     Band symmetry, C_3v (3m)   point group:

     e(  1 -  1) =     -5.53127  eV     1   --> A_1  L_1       
     e(  2 -  2) =     -2.53955  eV     1   --> A_1  L_1       
     e(  3 -  4) =      4.13384  eV     2   --> E    L_3       
     e(  5 -  5) =      5.91427  eV     1   --> A_1  L_1       
     e(  6 -  7) =      9.54298  eV     2   --> E    L_3       

 **************************************************************************

 **************************************************************************

                    xk=(   0.07581,   0.07581,   0.07581  )

     Band symmetry, C_3v (3m)   point group:

     e(  1 -  1) =     -5.54772  eV     1   --> A_1  L_1       
     e(  2 -  2) =     -2.51431  eV     1   --> A_1  L_1       
     e(  3 -  4) =      4.13625  eV     2   --> E    L_3       
     e(  5 -  5) =      5.91671  eV     1   --> A_1  L_1       
     e(  6 -  7) =      9.54379  eV     2   --> E    L_3       

 **************************************************************************

 **************************************************************************

                    xk=(   0.07549,   0.07549,   0.07549  )

     Band symmetry, C_3v (3m)   point group:

     e(  1 -  1) =     -5.56427  eV     1   --> A_1  L_1       
     e(  2 -  2) =     -2.48875  eV     1   --> A_1  L_1       
     e(  3 -  4) =      4.13872  eV     2   --> E    L_3       
     e(  5 -  5) =      5.91922  eV     1   --> A_1  L_1       
     e(  6 -  7) =      9.54462  eV     2   --> E    L_3       

 **************************************************************************

 **************************************************************************

                    xk=(   0.07517,   0.07517,   0.07517  )

     Band symmetry, C_3v (3m)   point group:

     e(  1 -  1) =     -5.58088  eV     1   --> A_1  L_1       
     e(  2 -  2) =     -2.46288  eV     1   --> A_1  L_1       
     e(  3 -  4) =      4.14126  eV     2   --> E    L_3       
     e(  5 -  5) =      5.92180  eV     1   --> A_1  L_1       
     e(  6 -  7) =      9.54544  eV     2   --> E    L_3       

 **************************************************************************

 **************************************************************************

                    xk=(   0.07484,   0.07484,   0.07484  )

     Band symmetry, C_3v (3m)   point group:

     e(  1 -  1) =     -5.59757  eV     1   --> A_1  L_1       
     e(  2 -  2) =     -2.43673  eV     1   --> A_1  L_1       
     e(  3 -  4) =      4.14385  eV     2   --> E    L_3       
     e(  5 -  5) =      5.92443  eV     1   --> A_1  L_1       
     e(  6 -  7) =      9.54628  eV     2   --> E    L_3       

 **************************************************************************

 **************************************************************************

                    xk=(   0.07452,   0.07452,   0.07452  )

     Band symmetry, C_3v (3m)   point group:

     e(  1 -  1) =     -5.61431  eV     1   --> A_1  L_1       
     e(  2 -  2) =     -2.41030  eV     1   --> A_1  L_1       
     e(  3 -  4) =      4.14651  eV     2   --> E    L_3       
     e(  5 -  5) =      5.92712  eV     1   --> A_1  L_1       
     e(  6 -  7) =      9.54711  eV     2   --> E    L_3       

 **************************************************************************

 **************************************************************************

                    xk=(   0.07420,   0.07420,   0.07420  )

     Band symmetry, C_3v (3m)   point group:

     e(  1 -  1) =     -5.63109  eV     1   --> A_1  L_1       
     e(  2 -  2) =     -2.38359  eV     1   --> A_1  L_1       
     e(  3 -  4) =      4.14922  eV     2   --> E    L_3       
     e(  5 -  5) =      5.92988  eV     1   --> A_1  L_1       
     e(  6 -  7) =      9.54795  eV     2   --> E    L_3       

 **************************************************************************

 **************************************************************************

                    xk=(   0.07388,   0.07388,   0.07388  )

     Band symmetry, C_3v (3m)   point group:

     e(  1 -  1) =     -5.64792  eV     1   --> A_1  L_1       
     e(  2 -  2) =     -2.35662  eV     1   --> A_1  L_1       
     e(  3 -  4) =      4.15199  eV     2   --> E    L_3       
     e(  5 -  5) =      5.93269  eV     1   --> A_1  L_1       
     e(  6 -  7) =      9.54879  eV     2   --> E    L_3       

 **************************************************************************

 **************************************************************************

                    xk=(   0.07355,   0.07355,   0.07355  )

     Band symmetry, C_3v (3m)   point group:

     e(  1 -  1) =     -5.66477  eV     1   --> A_1  L_1       
     e(  2 -  2) =     -2.32939  eV     1   --> A_1  L_1       
     e(  3 -  4) =      4.15483  eV     2   --> E    L_3       
     e(  5 -  5) =      5.93557  eV     1   --> A_1  L_1       
     e(  6 -  7) =      9.54964  eV     2   --> E    L_3       

 **************************************************************************

 **************************************************************************

                    xk=(   0.07323,   0.07323,   0.07323  )

     Band symmetry, C_3v (3m)   point group:

     e(  1 -  1) =     -5.68164  eV     1   --> A_1  L_1       
     e(  2 -  2) =     -2.30192  eV     1   --> A_1  L_1       
     e(  3 -  4) =      4.15772  eV     2   --> E    L_3       
     e(  5 -  5) =      5.93851  eV     1   --> A_1  L_1       
     e(  6 -  7) =      9.55048  eV     2   --> E    L_3       

 **************************************************************************

 **************************************************************************

                    xk=(   0.07291,   0.07291,   0.07291  )

     Band symmetry, C_3v (3m)   point group:

     e(  1 -  1) =     -5.69853  eV     1   --> A_1  L_1       
     e(  2 -  2) =     -2.27421  eV     1   --> A_1  L_1       
     e(  3 -  4) =      4.16068  eV     2   --> E    L_3       
     e(  5 -  5) =      5.94151  eV     1   --> A_1  L_1       
     e(  6 -  7) =      9.55132  eV     2   --> E    L_3       

 **************************************************************************

 **************************************************************************

                    xk=(   0.07259,   0.07259,   0.07259  )

     Band symmetry, C_3v (3m)   point group:

     e(  1 -  1) =     -5.71542  eV     1   --> A_1  L_1       
     e(  2 -  2) =     -2.24626  eV     1   --> A_1  L_1       
     e(  3 -  4) =      4.16369  eV     2   --> E    L_3       
     e(  5 -  5) =      5.94457  eV     1   --> A_1  L_1       
     e(  6 -  7) =      9.55216  eV     2   --> E    L_3       

 **************************************************************************

 **************************************************************************

                    xk=(   0.07226,   0.07226,   0.07226  )

     Band symmetry, C_3v (3m)   point group:

     e(  1 -  1) =     -5.73231  eV     1   --> A_1  L_1       
     e(  2 -  2) =     -2.21809  eV     1   --> A_1  L_1       
     e(  3 -  4) =      4.16677  eV     2   --> E    L_3       
     e(  5 -  5) =      5.94769  eV     1   --> A_1  L_1       
     e(  6 -  7) =      9.55299  eV     2   --> E    L_3       

 **************************************************************************

 **************************************************************************

                    xk=(   0.07194,   0.07194,   0.07194  )

     Band symmetry, C_3v (3m)   point group:

     e(  1 -  1) =     -5.74919  eV     1   --> A_1  L_1       
     e(  2 -  2) =     -2.18970  eV     1   --> A_1  L_1       
     e(  3 -  4) =      4.16990  eV     2   --> E    L_3       
     e(  5 -  5) =      5.95087  eV     1   --> A_1  L_1       
     e(  6 -  7) =      9.55382  eV     2   --> E    L_3       

 **************************************************************************

 **************************************************************************

                    xk=(   0.07162,   0.07162,   0.07162  )

     Band symmetry, C_3v (3m)   point group:

     e(  1 -  1) =     -5.76605  eV     1   --> A_1  L_1       
     e(  2 -  2) =     -2.16110  eV     1   --> A_1  L_1       
     e(  3 -  4) =      4.17310  eV     2   --> E    L_3       
     e(  5 -  5) =      5.95411  eV     1   --> A_1  L_1       
     e(  6 -  7) =      9.55464  eV     2   --> E    L_3       

 **************************************************************************

 **************************************************************************

                    xk=(   0.07129,   0.07129,   0.07129  )

     Band symmetry, C_3v (3m)   point group:

     e(  1 -  1) =     -5.78289  eV     1   --> A_1  L_1       
     e(  2 -  2) =     -2.13229  eV     1   --> A_1  L_1       
     e(  3 -  4) =      4.17635  eV     2   --> E    L_3       
     e(  5 -  5) =      5.95742  eV     1   --> A_1  L_1       
     e(  6 -  7) =      9.55545  eV     2   --> E    L_3       

 **************************************************************************

 **************************************************************************

                    xk=(   0.07097,   0.07097,   0.07097  )

     Band symmetry, C_3v (3m)   point group:

     e(  1 -  1) =     -5.79971  eV     1   --> A_1  L_1       
     e(  2 -  2) =     -2.10328  eV     1   --> A_1  L_1       
     e(  3 -  4) =      4.17966  eV     2   --> E    L_3       
     e(  5 -  5) =      5.96078  eV     1   --> A_1  L_1       
     e(  6 -  7) =      9.55626  eV     2   --> E    L_3       

 **************************************************************************

 **************************************************************************

                    xk=(   0.07065,   0.07065,   0.07065  )

     Band symmetry, C_3v (3m)   point group:

     e(  1 -  1) =     -5.81649  eV     1   --> A_1  L_1       
     e(  2 -  2) =     -2.07408  eV     1   --> A_1  L_1       
     e(  3 -  4) =      4.18304  eV     2   --> E    L_3       
     e(  5 -  5) =      5.96420  eV     1   --> A_1  L_1       
     e(  6 -  7) =      9.55705  eV     2   --> E    L_3       

 **************************************************************************

 **************************************************************************

                    xk=(   0.07033,   0.07033,   0.07033  )

     Band symmetry, C_3v (3m)   point group:

     e(  1 -  1) =     -5.83323  eV     1   --> A_1  L_1       
     e(  2 -  2) =     -2.04468  eV     1   --> A_1  L_1       
     e(  3 -  4) =      4.18647  eV     2   --> E    L_3       
     e(  5 -  5) =      5.96769  eV     1   --> A_1  L_1       
     e(  6 -  7) =      9.55783  eV     2   --> E    L_3       

 **************************************************************************

 **************************************************************************

                    xk=(   0.07000,   0.07000,   0.07000  )

     Band symmetry, C_3v (3m)   point group:

     e(  1 -  1) =     -5.84993  eV     1   --> A_1  L_1       
     e(  2 -  2) =     -2.01511  eV     1   --> A_1  L_1       
     e(  3 -  4) =      4.18996  eV     2   --> E    L_3       
     e(  5 -  5) =      5.97123  eV     1   --> A_1  L_1       
     e(  6 -  7) =      9.55860  eV     2   --> E    L_3       

 **************************************************************************

 **************************************************************************

                    xk=(   0.06968,   0.06968,   0.06968  )

     Band symmetry, C_3v (3m)   point group:

     e(  1 -  1) =     -5.86658  eV     1   --> A_1  L_1       
     e(  2 -  2) =     -1.98535  eV     1   --> A_1  L_1       
     e(  3 -  4) =      4.19351  eV     2   --> E    L_3       
     e(  5 -  5) =      5.97483  eV     1   --> A_1  L_1       
     e(  6 -  7) =      9.55935  eV     2   --> E    L_3       

 **************************************************************************

 **************************************************************************

                    xk=(   0.06936,   0.06936,   0.06936  )

     Band symmetry, C_3v (3m)   point group:

     e(  1 -  1) =     -5.88317  eV     1   --> A_1  L_1       
     e(  2 -  2) =     -1.95542  eV     1   --> A_1  L_1       
     e(  3 -  4) =      4.19712  eV     2   --> E    L_3       
     e(  5 -  5) =      5.97850  eV     1   --> A_1  L_1       
     e(  6 -  7) =      9.56009  eV     2   --> E    L_3       

 **************************************************************************

 **************************************************************************

                    xk=(   0.06904,   0.06904,   0.06904  )

     Band symmetry, C_3v (3m)   point group:

     e(  1 -  1) =     -5.89971  eV     1   --> A_1  L_1       
     e(  2 -  2) =     -1.92532  eV     1   --> A_1  L_1       
     e(  3 -  4) =      4.20079  eV     2   --> E    L_3       
     e(  5 -  5) =      5.98222  eV     1   --> A_1  L_1       
     e(  6 -  7) =      9.56080  eV     2   --> E    L_3       

 **************************************************************************

 **************************************************************************

                    xk=(   0.06871,   0.06871,   0.06871  )

     Band symmetry, C_3v (3m)   point group:

     e(  1 -  1) =     -5.91618  eV     1   --> A_1  L_1       
     e(  2 -  2) =     -1.89505  eV     1   --> A_1  L_1       
     e(  3 -  4) =      4.20451  eV     2   --> E    L_3       
     e(  5 -  5) =      5.98600  eV     1   --> A_1  L_1       
     e(  6 -  7) =      9.56150  eV     2   --> E    L_3       

 **************************************************************************

 **************************************************************************

                    xk=(   0.06839,   0.06839,   0.06839  )

     Band symmetry, C_3v (3m)   point group:

     e(  1 -  1) =     -5.93258  eV     1   --> A_1  L_1       
     e(  2 -  2) =     -1.86462  eV     1   --> A_1  L_1       
     e(  3 -  4) =      4.20830  eV     2   --> E    L_3       
     e(  5 -  5) =      5.98985  eV     1   --> A_1  L_1       
     e(  6 -  7) =      9.56218  eV     2   --> E    L_3       

 **************************************************************************

 **************************************************************************

                    xk=(   0.06807,   0.06807,   0.06807  )

     Band symmetry, C_3v (3m)   point group:

     e(  1 -  1) =     -5.94891  eV     1   --> A_1  L_1       
     e(  2 -  2) =     -1.83404  eV     1   --> A_1  L_1       
     e(  3 -  4) =      4.21215  eV     2   --> E    L_3       
     e(  5 -  5) =      5.99375  eV     1   --> A_1  L_1       
     e(  6 -  7) =      9.56284  eV     2   --> E    L_3       

 **************************************************************************

 **************************************************************************

                    xk=(   0.06775,   0.06775,   0.06775  )

     Band symmetry, C_3v (3m)   point group:

     e(  1 -  1) =     -5.96516  eV     1   --> A_1  L_1       
     e(  2 -  2) =     -1.80330  eV     1   --> A_1  L_1       
     e(  3 -  4) =      4.21605  eV     2   --> E    L_3       
     e(  5 -  5) =      5.99771  eV     1   --> A_1  L_1       
     e(  6 -  7) =      9.56346  eV     2   --> E    L_3       

 **************************************************************************

 **************************************************************************

                    xk=(   0.06742,   0.06742,   0.06742  )

     Band symmetry, C_3v (3m)   point group:

     e(  1 -  1) =     -5.98134  eV     1   --> A_1  L_1       
     e(  2 -  2) =     -1.77241  eV     1   --> A_1  L_1       
     e(  3 -  4) =      4.22001  eV     2   --> E    L_3       
     e(  5 -  5) =      6.00173  eV     1   --> A_1  L_1       
     e(  6 -  7) =      9.56407  eV     2   --> E    L_3       

 **************************************************************************

 **************************************************************************

                    xk=(   0.06710,   0.06710,   0.06710  )

     Band symmetry, C_3v (3m)   point group:

     e(  1 -  1) =     -5.99743  eV     1   --> A_1  L_1       
     e(  2 -  2) =     -1.74138  eV     1   --> A_1  L_1       
     e(  3 -  4) =      4.22403  eV     2   --> E    L_3       
     e(  5 -  5) =      6.00582  eV     1   --> A_1  L_1       
     e(  6 -  7) =      9.56464  eV     2   --> E    L_3       

 **************************************************************************

 **************************************************************************

                    xk=(   0.06678,   0.06678,   0.06678  )

     Band symmetry, C_3v (3m)   point group:

     e(  1 -  1) =     -6.01343  eV     1   --> A_1  L_1       
     e(  2 -  2) =     -1.71021  eV     1   --> A_1  L_1       
     e(  3 -  4) =      4.22811  eV     2   --> E    L_3       
     e(  5 -  5) =      6.00996  eV     1   --> A_1  L_1       
     e(  6 -  7) =      9.56519  eV     2   --> E    L_3       

 **************************************************************************

 **************************************************************************

                    xk=(   0.06646,   0.06646,   0.06646  )

     Band symmetry, C_3v (3m)   point group:

     e(  1 -  1) =     -6.02935  eV     1   --> A_1  L_1       
     e(  2 -  2) =     -1.67889  eV     1   --> A_1  L_1       
     e(  3 -  4) =      4.23225  eV     2   --> E    L_3       
     e(  5 -  5) =      6.01415  eV     1   --> A_1  L_1       
     e(  6 -  7) =      9.56570  eV     2   --> E    L_3       

 **************************************************************************

 **************************************************************************

                    xk=(   0.06613,   0.06613,   0.06613  )

     Band symmetry, C_3v (3m)   point group:

     e(  1 -  1) =     -6.04517  eV     1   --> A_1  L_1       
     e(  2 -  2) =     -1.64744  eV     1   --> A_1  L_1       
     e(  3 -  4) =      4.23645  eV     2   --> E    L_3       
     e(  5 -  5) =      6.01841  eV     1   --> A_1  L_1       
     e(  6 -  7) =      9.56618  eV     2   --> E    L_3       

 **************************************************************************

 **************************************************************************

                    xk=(   0.06581,   0.06581,   0.06581  )

     Band symmetry, C_3v (3m)   point group:

     e(  1 -  1) =     -6.06089  eV     1   --> A_1  L_1       
     e(  2 -  2) =     -1.61586  eV     1   --> A_1  L_1       
     e(  3 -  4) =      4.24070  eV     2   --> E    L_3       
     e(  5 -  5) =      6.02273  eV     1   --> A_1  L_1       
     e(  6 -  7) =      9.56663  eV     2   --> E    L_3       

 **************************************************************************

 **************************************************************************

                    xk=(   0.06549,   0.06549,   0.06549  )

     Band symmetry, C_3v (3m)   point group:

     e(  1 -  1) =     -6.07652  eV     1   --> A_1  L_1       
     e(  2 -  2) =     -1.58414  eV     1   --> A_1  L_1       
     e(  3 -  4) =      4.24502  eV     2   --> E    L_3       
     e(  5 -  5) =      6.02711  eV     1   --> A_1  L_1       
     e(  6 -  7) =      9.56704  eV     2   --> E    L_3       

 **************************************************************************

 **************************************************************************

                    xk=(   0.06517,   0.06517,   0.06517  )

     Band symmetry, C_3v (3m)   point group:

     e(  1 -  1) =     -6.09204  eV     1   --> A_1  L_1       
     e(  2 -  2) =     -1.55230  eV     1   --> A_1  L_1       
     e(  3 -  4) =      4.24939  eV     2   --> E    L_3       
     e(  5 -  5) =      6.03155  eV     1   --> A_1  L_1       
     e(  6 -  7) =      9.56741  eV     2   --> E    L_3       

 **************************************************************************

 **************************************************************************

                    xk=(   0.06484,   0.06484,   0.06484  )

     Band symmetry, C_3v (3m)   point group:

     e(  1 -  1) =     -6.10745  eV     1   --> A_1  L_1       
     e(  2 -  2) =     -1.52034  eV     1   --> A_1  L_1       
     e(  3 -  4) =      4.25381  eV     2   --> E    L_3       
     e(  5 -  5) =      6.03604  eV     1   --> A_1  L_1       
     e(  6 -  7) =      9.56774  eV     2   --> E    L_3       

 **************************************************************************

 **************************************************************************

                    xk=(   0.06452,   0.06452,   0.06452  )

     Band symmetry, C_3v (3m)   point group:

     e(  1 -  1) =     -6.12276  eV     1   --> A_1  L_1       
     e(  2 -  2) =     -1.48825  eV     1   --> A_1  L_1       
     e(  3 -  4) =      4.25830  eV     2   --> E    L_3       
     e(  5 -  5) =      6.04059  eV     1   --> A_1  L_1       
     e(  6 -  7) =      9.56802  eV     2   --> E    L_3       

 **************************************************************************

 **************************************************************************

                    xk=(   0.06420,   0.06420,   0.06420  )

     Band symmetry, C_3v (3m)   point group:

     e(  1 -  1) =     -6.13796  eV     1   --> A_1  L_1       
     e(  2 -  2) =     -1.45605  eV     1   --> A_1  L_1       
     e(  3 -  4) =      4.26284  eV     2   --> E    L_3       
     e(  5 -  5) =      6.04519  eV     1   --> A_1  L_1       
     e(  6 -  7) =      9.56827  eV     2   --> E    L_3       

 **************************************************************************

 **************************************************************************

                    xk=(   0.06388,   0.06388,   0.06388  )

     Band symmetry, C_3v (3m)   point group:

     e(  1 -  1) =     -6.15305  eV     1   --> A_1  L_1       
     e(  2 -  2) =     -1.42372  eV     1   --> A_1  L_1       
     e(  3 -  4) =      4.26744  eV     2   --> E    L_3       
     e(  5 -  5) =      6.04986  eV     1   --> A_1  L_1       
     e(  6 -  7) =      9.56847  eV     2   --> E    L_3       

 **************************************************************************

 **************************************************************************

                    xk=(   0.06355,   0.06355,   0.06355  )

     Band symmetry, C_3v (3m)   point group:

     e(  1 -  1) =     -6.16802  eV     1   --> A_1  L_1       
     e(  2 -  2) =     -1.39129  eV     1   --> A_1  L_1       
     e(  3 -  4) =      4.27210  eV     2   --> E    L_3       
     e(  5 -  5) =      6.05458  eV     1   --> A_1  L_1       
     e(  6 -  7) =      9.56862  eV     2   --> E    L_3       

 **************************************************************************

 **************************************************************************

                    xk=(   0.06323,   0.06323,   0.06323  )

     Band symmetry, C_3v (3m)   point group:

     e(  1 -  1) =     -6.18287  eV     1   --> A_1  L_1       
     e(  2 -  2) =     -1.35874  eV     1   --> A_1  L_1       
     e(  3 -  4) =      4.27681  eV     2   --> E    L_3       
     e(  5 -  5) =      6.05936  eV     1   --> A_1  L_1       
     e(  6 -  7) =      9.56872  eV     2   --> E    L_3       

 **************************************************************************

 **************************************************************************

                    xk=(   0.06291,   0.06291,   0.06291  )

     Band symmetry, C_3v (3m)   point group:

     e(  1 -  1) =     -6.19760  eV     1   --> A_1  L_1       
     e(  2 -  2) =     -1.32608  eV     1   --> A_1  L_1       
     e(  3 -  4) =      4.28158  eV     2   --> E    L_3       
     e(  5 -  5) =      6.06420  eV     1   --> A_1  L_1       
     e(  6 -  7) =      9.56877  eV     2   --> E    L_3       

 **************************************************************************

 **************************************************************************

                    xk=(   0.06258,   0.06258,   0.06258  )

     Band symmetry, C_3v (3m)   point group:

     e(  1 -  1) =     -6.21222  eV     1   --> A_1  L_1       
     e(  2 -  2) =     -1.29331  eV     1   --> A_1  L_1       
     e(  3 -  4) =      4.28641  eV     2   --> E    L_3       
     e(  5 -  5) =      6.06909  eV     1   --> A_1  L_1       
     e(  6 -  7) =      9.56876  eV     2   --> E    L_3       

 **************************************************************************

 **************************************************************************

                    xk=(   0.06226,   0.06226,   0.06226  )

     Band symmetry, C_3v (3m)   point group:

     e(  1 -  1) =     -6.22671  eV     1   --> A_1  L_1       
     e(  2 -  2) =     -1.26044  eV     1   --> A_1  L_1       
     e(  3 -  4) =      4.29129  eV     2   --> E    L_3       
     e(  5 -  5) =      6.07404  eV     1   --> A_1  L_1       
     e(  6 -  7) =      9.56870  eV     2   --> E    L_3       

 **************************************************************************

 **************************************************************************

                    xk=(   0.06194,   0.06194,   0.06194  )

     Band symmetry, C_3v (3m)   point group:

     e(  1 -  1) =     -6.24107  eV     1   --> A_1  L_1       
     e(  2 -  2) =     -1.22746  eV     1   --> A_1  L_1       
     e(  3 -  4) =      4.29623  eV     2   --> E    L_3       
     e(  5 -  5) =      6.07905  eV     1   --> A_1  L_1       
     e(  6 -  7) =      9.56859  eV     2   --> E    L_3       

 **************************************************************************

 **************************************************************************

                    xk=(   0.06162,   0.06162,   0.06162  )

     Band symmetry, C_3v (3m)   point group:

     e(  1 -  1) =     -6.25531  eV     1   --> A_1  L_1       
     e(  2 -  2) =     -1.19439  eV     1   --> A_1  L_1       
     e(  3 -  4) =      4.30123  eV     2   --> E    L_3       
     e(  5 -  5) =      6.08411  eV     1   --> A_1  L_1       
     e(  6 -  7) =      9.56841  eV     2   --> E    L_3       

 **************************************************************************

 **************************************************************************

                    xk=(   0.06129,   0.06129,   0.06129  )

     Band symmetry, C_3v (3m)   point group:

     e(  1 -  1) =     -6.26942  eV     1   --> A_1  L_1       
     e(  2 -  2) =     -1.16121  eV     1   --> A_1  L_1       
     e(  3 -  4) =      4.30628  eV     2   --> E    L_3       
     e(  5 -  5) =      6.08923  eV     1   --> A_1  L_1       
     e(  6 -  7) =      9.56817  eV     2   --> E    L_3       

 **************************************************************************

 **************************************************************************

                    xk=(   0.06097,   0.06097,   0.06097  )

     Band symmetry, C_3v (3m)   point group:

     e(  1 -  1) =     -6.28340  eV     1   --> A_1  L_1       
     e(  2 -  2) =     -1.12793  eV     1   --> A_1  L_1       
     e(  3 -  4) =      4.31139  eV     2   --> E    L_3       
     e(  5 -  5) =      6.09440  eV     1   --> A_1  L_1       
     e(  6 -  7) =      9.56787  eV     2   --> E    L_3       

 **************************************************************************

 **************************************************************************

                    xk=(   0.06065,   0.06065,   0.06065  )

     Band symmetry, C_3v (3m)   point group:

     e(  1 -  1) =     -6.29724  eV     1   --> A_1  L_1       
     e(  2 -  2) =     -1.09456  eV     1   --> A_1  L_1       
     e(  3 -  4) =      4.31656  eV     2   --> E    L_3       
     e(  5 -  5) =      6.09964  eV     1   --> A_1  L_1       
     e(  6 -  7) =      9.56750  eV     2   --> E    L_3       

 **************************************************************************

 **************************************************************************

                    xk=(   0.06033,   0.06033,   0.06033  )

     Band symmetry, C_3v (3m)   point group:

     e(  1 -  1) =     -6.31096  eV     1   --> A_1  L_1       
     e(  2 -  2) =     -1.06109  eV     1   --> A_1  L_1       
     e(  3 -  4) =      4.32178  eV     2   --> E    L_3       
     e(  5 -  5) =      6.10492  eV     1   --> A_1  L_1       
     e(  6 -  7) =      9.56706  eV     2   --> E    L_3       

 **************************************************************************

 **************************************************************************

                    xk=(   0.06000,   0.06000,   0.06000  )

     Band symmetry, C_3v (3m)   point group:

     e(  1 -  1) =     -6.32453  eV     1   --> A_1  L_1       
     e(  2 -  2) =     -1.02753  eV     1   --> A_1  L_1       
     e(  3 -  4) =      4.32706  eV     2   --> E    L_3       
     e(  5 -  5) =      6.11027  eV     1   --> A_1  L_1       
     e(  6 -  7) =      9.56656  eV     2   --> E    L_3       

 **************************************************************************

 **************************************************************************

                    xk=(   0.05968,   0.05968,   0.05968  )

     Band symmetry, C_3v (3m)   point group:

     e(  1 -  1) =     -6.33797  eV     1   --> A_1  L_1       
     e(  2 -  2) =     -0.99388  eV     1   --> A_1  L_1       
     e(  3 -  4) =      4.33239  eV     2   --> E    L_3       
     e(  5 -  5) =      6.11566  eV     1   --> A_1  L_1       
     e(  6 -  7) =      9.56598  eV     2   --> E    L_3       

 **************************************************************************

 **************************************************************************

                    xk=(   0.05936,   0.05936,   0.05936  )

     Band symmetry, C_3v (3m)   point group:

     e(  1 -  1) =     -6.35128  eV     1   --> A_1  L_1       
     e(  2 -  2) =     -0.96014  eV     1   --> A_1  L_1       
     e(  3 -  4) =      4.33777  eV     2   --> E    L_3       
     e(  5 -  5) =      6.12111  eV     1   --> A_1  L_1       
     e(  6 -  7) =      9.56533  eV     2   --> E    L_3       

 **************************************************************************

 **************************************************************************

                    xk=(   0.05904,   0.05904,   0.05904  )

     Band symmetry, C_3v (3m)   point group:

     e(  1 -  1) =     -6.36444  eV     1   --> A_1  L_1       
     e(  2 -  2) =     -0.92631  eV     1   --> A_1  L_1       
     e(  3 -  4) =      4.34322  eV     2   --> E    L_3       
     e(  5 -  5) =      6.12662  eV     1   --> A_1  L_1       
     e(  6 -  7) =      9.56460  eV     2   --> E    L_3       

 **************************************************************************

 **************************************************************************

                    xk=(   0.05871,   0.05871,   0.05871  )

     Band symmetry, C_3v (3m)   point group:

     e(  1 -  1) =     -6.37748  eV     1   --> A_1  L_1       
     e(  2 -  2) =     -0.89239  eV     1   --> A_1  L_1       
     e(  3 -  4) =      4.34871  eV     2   --> E    L_3       
     e(  5 -  5) =      6.13218  eV     1   --> A_1  L_1       
     e(  6 -  7) =      9.56380  eV     2   --> E    L_3       

 **************************************************************************

 **************************************************************************

                    xk=(   0.05839,   0.05839,   0.05839  )

     Band symmetry, C_3v (3m)   point group:

     e(  1 -  1) =     -6.39037  eV     1   --> A_1  L_1       
     e(  2 -  2) =     -0.85839  eV     1   --> A_1  L_1       
     e(  3 -  4) =      4.35426  eV     2   --> E    L_3       
     e(  5 -  5) =      6.13779  eV     1   --> A_1  L_1       
     e(  6 -  7) =      9.56291  eV     2   --> E    L_3       

 **************************************************************************

 **************************************************************************

                    xk=(   0.05807,   0.05807,   0.05807  )

     Band symmetry, C_3v (3m)   point group:

     e(  1 -  1) =     -6.40311  eV     1   --> A_1  L_1       
     e(  2 -  2) =     -0.82431  eV     1   --> A_1  L_1       
     e(  3 -  4) =      4.35987  eV     2   --> E    L_3       
     e(  5 -  5) =      6.14345  eV     1   --> A_1  L_1       
     e(  6 -  7) =      9.56195  eV     2   --> E    L_3       

 **************************************************************************

 **************************************************************************

                    xk=(   0.05775,   0.05775,   0.05775  )

     Band symmetry, C_3v (3m)   point group:

     e(  1 -  1) =     -6.41571  eV     1   --> A_1  L_1       
     e(  2 -  2) =     -0.79014  eV     1   --> A_1  L_1       
     e(  3 -  4) =      4.36553  eV     2   --> E    L_3       
     e(  5 -  5) =      6.14917  eV     1   --> A_1  L_1       
     e(  6 -  7) =      9.56089  eV     2   --> E    L_3       

 **************************************************************************

 **************************************************************************

                    xk=(   0.05742,   0.05742,   0.05742  )

     Band symmetry, C_3v (3m)   point group:

     e(  1 -  1) =     -6.42817  eV     1   --> A_1  L_1       
     e(  2 -  2) =     -0.75588  eV     1   --> A_1  L_1       
     e(  3 -  4) =      4.37124  eV     2   --> E    L_3       
     e(  5 -  5) =      6.15495  eV     1   --> A_1  L_1       
     e(  6 -  7) =      9.55976  eV     2   --> E    L_3       

 **************************************************************************

 **************************************************************************

                    xk=(   0.05710,   0.05710,   0.05710  )

     Band symmetry, C_3v (3m)   point group:

     e(  1 -  1) =     -6.44048  eV     1   --> A_1  L_1       
     e(  2 -  2) =     -0.72155  eV     1   --> A_1  L_1       
     e(  3 -  4) =      4.37701  eV     2   --> E    L_3       
     e(  5 -  5) =      6.16077  eV     1   --> A_1  L_1       
     e(  6 -  7) =      9.55853  eV     2   --> E    L_3       

 **************************************************************************

 **************************************************************************

                    xk=(   0.05678,   0.05678,   0.05678  )

     Band symmetry, C_3v (3m)   point group:

     e(  1 -  1) =     -6.45265  eV     1   --> A_1  L_1       
     e(  2 -  2) =     -0.68714  eV     1   --> A_1  L_1       
     e(  3 -  4) =      4.38283  eV     2   --> E    L_3       
     e(  5 -  5) =      6.16665  eV     1   --> A_1  L_1       
     e(  6 -  7) =      9.55722  eV     2   --> E    L_3       

 **************************************************************************

 **************************************************************************

                    xk=(   0.05646,   0.05646,   0.05646  )

     Band symmetry, C_3v (3m)   point group:

     e(  1 -  1) =     -6.46467  eV     1   --> A_1  L_1       
     e(  2 -  2) =     -0.65265  eV     1   --> A_1  L_1       
     e(  3 -  4) =      4.38871  eV     2   --> E    L_3       
     e(  5 -  5) =      6.17258  eV     1   --> A_1  L_1       
     e(  6 -  7) =      9.55581  eV     2   --> E    L_3       

 **************************************************************************

 **************************************************************************

                    xk=(   0.05613,   0.05613,   0.05613  )

     Band symmetry, C_3v (3m)   point group:

     e(  1 -  1) =     -6.47655  eV     1   --> A_1  L_1       
     e(  2 -  2) =     -0.61809  eV     1   --> A_1  L_1       
     e(  3 -  4) =      4.39463  eV     2   --> E    L_3       
     e(  5 -  5) =      6.17856  eV     1   --> A_1  L_1       
     e(  6 -  7) =      9.55431  eV     2   --> E    L_3       

 **************************************************************************

 **************************************************************************

                    xk=(   0.05581,   0.05581,   0.05581  )

     Band symmetry, C_3v (3m)   point group:

     e(  1 -  1) =     -6.48827  eV     1   --> A_1  L_1       
     e(  2 -  2) =     -0.58345  eV     1   --> A_1  L_1       
     e(  3 -  4) =      4.40061  eV     2   --> E    L_3       
     e(  5 -  5) =      6.18460  eV     1   --> A_1  L_1       
     e(  6 -  7) =      9.55271  eV     2   --> E    L_3       

 **************************************************************************

 **************************************************************************

                    xk=(   0.05549,   0.05549,   0.05549  )

     Band symmetry, C_3v (3m)   point group:

     e(  1 -  1) =     -6.49985  eV     1   --> A_1  L_1       
     e(  2 -  2) =     -0.54873  eV     1   --> A_1  L_1       
     e(  3 -  4) =      4.40665  eV     2   --> E    L_3       
     e(  5 -  5) =      6.19068  eV     1   --> A_1  L_1       
     e(  6 -  7) =      9.55102  eV     2   --> E    L_3       

 **************************************************************************

 **************************************************************************

                    xk=(   0.05516,   0.05516,   0.05516  )

     Band symmetry, C_3v (3m)   point group:

     e(  1 -  1) =     -6.51129  eV     1   --> A_1  L_1       
     e(  2 -  2) =     -0.51394  eV     1   --> A_1  L_1       
     e(  3 -  4) =      4.41273  eV     2   --> E    L_3       
     e(  5 -  5) =      6.19681  eV     1   --> A_1  L_1       
     e(  6 -  7) =      9.54922  eV     2   --> E    L_3       

 **************************************************************************

 **************************************************************************

                    xk=(   0.05484,   0.05484,   0.05484  )

     Band symmetry, C_3v (3m)   point group:

     e(  1 -  1) =     -6.52257  eV     1   --> A_1  L_1       
     e(  2 -  2) =     -0.47908  eV     1   --> A_1  L_1       
     e(  3 -  4) =      4.41887  eV     2   --> E    L_3       
     e(  5 -  5) =      6.20299  eV     1   --> A_1  L_1       
     e(  6 -  7) =      9.54732  eV     2   --> E    L_3       

 **************************************************************************

 **************************************************************************

                    xk=(   0.05452,   0.05452,   0.05452  )

     Band symmetry, C_3v (3m)   point group:

     e(  1 -  1) =     -6.53370  eV     1   --> A_1  L_1       
     e(  2 -  2) =     -0.44415  eV     1   --> A_1  L_1       
     e(  3 -  4) =      4.42506  eV     2   --> E    L_3       
     e(  5 -  5) =      6.20923  eV     1   --> A_1  L_1       
     e(  6 -  7) =      9.54532  eV     2   --> E    L_3       

 **************************************************************************

 **************************************************************************

                    xk=(   0.05420,   0.05420,   0.05420  )

     Band symmetry, C_3v (3m)   point group:

     e(  1 -  1) =     -6.54468  eV     1   --> A_1  L_1       
     e(  2 -  2) =     -0.40915  eV     1   --> A_1  L_1       
     e(  3 -  4) =      4.43131  eV     2   --> E    L_3       
     e(  5 -  5) =      6.21551  eV     1   --> A_1  L_1       
     e(  6 -  7) =      9.54321  eV     2   --> E    L_3       

 **************************************************************************

 **************************************************************************

                    xk=(   0.05387,   0.05387,   0.05387  )

     Band symmetry, C_3v (3m)   point group:

     e(  1 -  1) =     -6.55552  eV     1   --> A_1  L_1       
     e(  2 -  2) =     -0.37408  eV     1   --> A_1  L_1       
     e(  3 -  4) =      4.43760  eV     2   --> E    L_3       
     e(  5 -  5) =      6.22184  eV     1   --> A_1  L_1       
     e(  6 -  7) =      9.54100  eV     2   --> E    L_3       

 **************************************************************************

 **************************************************************************

                    xk=(   0.05355,   0.05355,   0.05355  )

     Band symmetry, C_3v (3m)   point group:

     e(  1 -  1) =     -6.56620  eV     1   --> A_1  L_1       
     e(  2 -  2) =     -0.33894  eV     1   --> A_1  L_1       
     e(  3 -  4) =      4.44394  eV     2   --> E    L_3       
     e(  5 -  5) =      6.22822  eV     1   --> A_1  L_1       
     e(  6 -  7) =      9.53868  eV     2   --> E    L_3       

 **************************************************************************

 **************************************************************************

                    xk=(   0.05323,   0.05323,   0.05323  )

     Band symmetry, C_3v (3m)   point group:

     e(  1 -  1) =     -6.57673  eV     1   --> A_1  L_1       
     e(  2 -  2) =     -0.30373  eV     1   --> A_1  L_1       
     e(  3 -  4) =      4.45034  eV     2   --> E    L_3       
     e(  5 -  5) =      6.23465  eV     1   --> A_1  L_1       
     e(  6 -  7) =      9.53624  eV     2   --> E    L_3       

 **************************************************************************

 **************************************************************************

                    xk=(   0.05291,   0.05291,   0.05291  )

     Band symmetry, C_3v (3m)   point group:

     e(  1 -  1) =     -6.58711  eV     1   --> A_1  L_1       
     e(  2 -  2) =     -0.26846  eV     1   --> A_1  L_1       
     e(  3 -  4) =      4.45679  eV     2   --> E    L_3       
     e(  5 -  5) =      6.24112  eV     1   --> A_1  L_1       
     e(  6 -  7) =      9.53369  eV     2   --> E    L_3       

 **************************************************************************

 **************************************************************************

                    xk=(   0.05258,   0.05258,   0.05258  )

     Band symmetry, C_3v (3m)   point group:

     e(  1 -  1) =     -6.59734  eV     1   --> A_1  L_1       
     e(  2 -  2) =     -0.23312  eV     1   --> A_1  L_1       
     e(  3 -  4) =      4.46328  eV     2   --> E    L_3       
     e(  5 -  5) =      6.24764  eV     1   --> A_1  L_1       
     e(  6 -  7) =      9.53103  eV     2   --> E    L_3       

 **************************************************************************

 **************************************************************************

                    xk=(   0.05226,   0.05226,   0.05226  )

     Band symmetry, C_3v (3m)   point group:

     e(  1 -  1) =     -6.60743  eV     1   --> A_1  L_1       
     e(  2 -  2) =     -0.19771  eV     1   --> A_1  L_1       
     e(  3 -  4) =      4.46983  eV     2   --> E    L_3       
     e(  5 -  5) =      6.25421  eV     1   --> A_1  L_1       
     e(  6 -  7) =      9.52825  eV     2   --> E    L_3       

 **************************************************************************

 **************************************************************************

                    xk=(   0.05194,   0.05194,   0.05194  )

     Band symmetry, C_3v (3m)   point group:

     e(  1 -  1) =     -6.61736  eV     1   --> A_1  L_1       
     e(  2 -  2) =     -0.16224  eV     1   --> A_1  L_1       
     e(  3 -  4) =      4.47643  eV     2   --> E    L_3       
     e(  5 -  5) =      6.26082  eV     1   --> A_1  L_1       
     e(  6 -  7) =      9.52535  eV     2   --> E    L_3       

 **************************************************************************

 **************************************************************************

                    xk=(   0.05162,   0.05162,   0.05162  )

     Band symmetry, C_3v (3m)   point group:

     e(  1 -  1) =     -6.62713  eV     1   --> A_1  L_1       
     e(  2 -  2) =     -0.12671  eV     1   --> A_1  L_1       
     e(  3 -  4) =      4.48307  eV     2   --> E    L_3       
     e(  5 -  5) =      6.26748  eV     1   --> A_1  L_1       
     e(  6 -  7) =      9.52234  eV     2   --> E    L_3       

 **************************************************************************

 **************************************************************************

                    xk=(   0.05129,   0.05129,   0.05129  )

     Band symmetry, C_3v (3m)   point group:

     e(  1 -  1) =     -6.63676  eV     1   --> A_1  L_1       
     e(  2 -  2) =     -0.09112  eV     1   --> A_1  L_1       
     e(  3 -  4) =      4.48977  eV     2   --> E    L_3       
     e(  5 -  5) =      6.27418  eV     1   --> A_1  L_1       
     e(  6 -  7) =      9.51920  eV     2   --> E    L_3       

 **************************************************************************

 **************************************************************************

                    xk=(   0.05097,   0.05097,   0.05097  )

     Band symmetry, C_3v (3m)   point group:

     e(  1 -  1) =     -6.64623  eV     1   --> A_1  L_1       
     e(  2 -  2) =     -0.05546  eV     1   --> A_1  L_1       
     e(  3 -  4) =      4.49652  eV     2   --> E    L_3       
     e(  5 -  5) =      6.28093  eV     1   --> A_1  L_1       
     e(  6 -  7) =      9.51595  eV     2   --> E    L_3       

 **************************************************************************

 **************************************************************************

                    xk=(   0.05065,   0.05065,   0.05065  )

     Band symmetry, C_3v (3m)   point group:

     e(  1 -  1) =     -6.65555  eV     1   --> A_1  L_1       
     e(  2 -  2) =     -0.01975  eV     1   --> A_1  L_1       
     e(  3 -  4) =      4.50331  eV     2   --> E    L_3       
     e(  5 -  5) =      6.28772  eV     1   --> A_1  L_1       
     e(  6 -  7) =      9.51256  eV     2   --> E    L_3       

 **************************************************************************

 **************************************************************************

                    xk=(   0.05033,   0.05033,   0.05033  )

     Band symmetry, C_3v (3m)   point group:

     e(  1 -  1) =     -6.66473  eV     1   --> A_1  L_1       
     e(  2 -  2) =      0.01603  eV     1   --> A_1  L_1       
     e(  3 -  4) =      4.51015  eV     2   --> E    L_3       
     e(  5 -  5) =      6.29455  eV     1   --> A_1  L_1       
     e(  6 -  7) =      9.50906  eV     2   --> E    L_3       

 **************************************************************************

 **************************************************************************

                    xk=(   0.05000,   0.05000,   0.05000  )

     Band symmetry, C_3v (3m)   point group:

     e(  1 -  1) =     -6.67375  eV     1   --> A_1  L_1       
     e(  2 -  2) =      0.05186  eV     1   --> A_1  L_1       
     e(  3 -  4) =      4.51704  eV     2   --> E    L_3       
     e(  5 -  5) =      6.30143  eV     1   --> A_1  L_1       
     e(  6 -  7) =      9.50542  eV     2   --> E    L_3       

 **************************************************************************

 **************************************************************************

                    xk=(   0.04968,   0.04968,   0.04968  )

     Band symmetry, C_3v (3m)   point group:

     e(  1 -  1) =     -6.68262  eV     1   --> A_1  L_1       
     e(  2 -  2) =      0.08776  eV     1   --> A_1  L_1       
     e(  3 -  4) =      4.52398  eV     2   --> E    L_3       
     e(  5 -  5) =      6.30834  eV     1   --> A_1  L_1       
     e(  6 -  7) =      9.50166  eV     2   --> E    L_3       

 **************************************************************************

 **************************************************************************

                    xk=(   0.04936,   0.04936,   0.04936  )

     Band symmetry, C_3v (3m)   point group:

     e(  1 -  1) =     -6.69134  eV     1   --> A_1  L_1       
     e(  2 -  2) =      0.12371  eV     1   --> A_1  L_1       
     e(  3 -  4) =      4.53096  eV     2   --> E    L_3       
     e(  5 -  5) =      6.31530  eV     1   --> A_1  L_1       
     e(  6 -  7) =      9.49777  eV     2   --> E    L_3       

 **************************************************************************

 **************************************************************************

                    xk=(   0.04904,   0.04904,   0.04904  )

     Band symmetry, C_3v (3m)   point group:

     e(  1 -  1) =     -6.69991  eV     1   --> A_1  L_1       
     e(  2 -  2) =      0.15971  eV     1   --> A_1  L_1       
     e(  3 -  4) =      4.53800  eV     2   --> E    L_3       
     e(  5 -  5) =      6.32230  eV     1   --> A_1  L_1       
     e(  6 -  7) =      9.49376  eV     2   --> E    L_3       

 **************************************************************************

 **************************************************************************

                    xk=(   0.04871,   0.04871,   0.04871  )

     Band symmetry, C_3v (3m)   point group:

     e(  1 -  1) =     -6.70833  eV     1   --> A_1  L_1       
     e(  2 -  2) =      0.19578  eV     1   --> A_1  L_1       
     e(  3 -  4) =      4.54508  eV     2   --> E    L_3       
     e(  5 -  5) =      6.32934  eV     1   --> A_1  L_1       
     e(  6 -  7) =      9.48961  eV     2   --> E    L_3       

 **************************************************************************

 **************************************************************************

                    xk=(   0.04839,   0.04839,   0.04839  )

     Band symmetry, C_3v (3m)   point group:

     e(  1 -  1) =     -6.71660  eV     1   --> A_1  L_1       
     e(  2 -  2) =      0.23190  eV     1   --> A_1  L_1       
     e(  3 -  4) =      4.55220  eV     2   --> E    L_3       
     e(  5 -  5) =      6.33642  eV     1   --> A_1  L_1       
     e(  6 -  7) =      9.48532  eV     2   --> E    L_3       

 **************************************************************************

 **************************************************************************

                    xk=(   0.04807,   0.04807,   0.04807  )

     Band symmetry, C_3v (3m)   point group:

     e(  1 -  1) =     -6.72472  eV     1   --> A_1  L_1       
     e(  2 -  2) =      0.26807  eV     1   --> A_1  L_1       
     e(  3 -  4) =      4.55937  eV     2   --> E    L_3       
     e(  5 -  5) =      6.34353  eV     1   --> A_1  L_1       
     e(  6 -  7) =      9.48091  eV     2   --> E    L_3       

 **************************************************************************

 **************************************************************************

                    xk=(   0.04775,   0.04775,   0.04775  )

     Band symmetry, C_3v (3m)   point group:

     e(  1 -  1) =     -6.73269  eV     1   --> A_1  L_1       
     e(  2 -  2) =      0.30430  eV     1   --> A_1  L_1       
     e(  3 -  4) =      4.56659  eV     2   --> E    L_3       
     e(  5 -  5) =      6.35069  eV     1   --> A_1  L_1       
     e(  6 -  7) =      9.47636  eV     2   --> E    L_3       

 **************************************************************************

 **************************************************************************

                    xk=(   0.04742,   0.04742,   0.04742  )

     Band symmetry, C_3v (3m)   point group:

     e(  1 -  1) =     -6.74052  eV     1   --> A_1  L_1       
     e(  2 -  2) =      0.34058  eV     1   --> A_1  L_1       
     e(  3 -  4) =      4.57385  eV     2   --> E    L_3       
     e(  5 -  5) =      6.35787  eV     1   --> A_1  L_1       
     e(  6 -  7) =      9.47168  eV     2   --> E    L_3       

 **************************************************************************

 **************************************************************************

                    xk=(   0.04710,   0.04710,   0.04710  )

     Band symmetry, C_3v (3m)   point group:

     e(  1 -  1) =     -6.74820  eV     1   --> A_1  L_1       
     e(  2 -  2) =      0.37691  eV     1   --> A_1  L_1       
     e(  3 -  4) =      4.58116  eV     2   --> E    L_3       
     e(  5 -  5) =      6.36510  eV     1   --> A_1  L_1       
     e(  6 -  7) =      9.46686  eV     2   --> E    L_3       

 **************************************************************************

 **************************************************************************

                    xk=(   0.04678,   0.04678,   0.04678  )

     Band symmetry, C_3v (3m)   point group:

     e(  1 -  1) =     -6.75573  eV     1   --> A_1  L_1       
     e(  2 -  2) =      0.41330  eV     1   --> A_1  L_1       
     e(  3 -  4) =      4.58851  eV     2   --> E    L_3       
     e(  5 -  5) =      6.37236  eV     1   --> A_1  L_1       
     e(  6 -  7) =      9.46191  eV     2   --> E    L_3       

 **************************************************************************

 **************************************************************************

                    xk=(   0.04645,   0.04645,   0.04645  )

     Band symmetry, C_3v (3m)   point group:

     e(  1 -  1) =     -6.76311  eV     1   --> A_1  L_1       
     e(  2 -  2) =      0.44974  eV     1   --> A_1  L_1       
     e(  3 -  4) =      4.59590  eV     2   --> E    L_3       
     e(  5 -  5) =      6.37965  eV     1   --> A_1  L_1       
     e(  6 -  7) =      9.45682  eV     2   --> E    L_3       

 **************************************************************************

 **************************************************************************

                    xk=(   0.04613,   0.04613,   0.04613  )

     Band symmetry, C_3v (3m)   point group:

     e(  1 -  1) =     -6.77035  eV     1   --> A_1  L_1       
     e(  2 -  2) =      0.48622  eV     1   --> A_1  L_1       
     e(  3 -  4) =      4.60334  eV     2   --> E    L_3       
     e(  5 -  5) =      6.38698  eV     1   --> A_1  L_1       
     e(  6 -  7) =      9.45159  eV     2   --> E    L_3       

 **************************************************************************

 **************************************************************************

                    xk=(   0.04581,   0.04581,   0.04581  )

     Band symmetry, C_3v (3m)   point group:

     e(  1 -  1) =     -6.77744  eV     1   --> A_1  L_1       
     e(  2 -  2) =      0.52276  eV     1   --> A_1  L_1       
     e(  3 -  4) =      4.61082  eV     2   --> E    L_3       
     e(  5 -  5) =      6.39434  eV     1   --> A_1  L_1       
     e(  6 -  7) =      9.44623  eV     2   --> E    L_3       

 **************************************************************************

[...]
     e(  3 -  4) =      2.30364  eV     2   --> E    G_5 D_5   
     e(  5 -  5) =      6.15688  eV     1   --> A_1  G_1 D_1   
     e(  6 -  6) =      6.82844  eV     1   --> B_2  G_4 D_2'  
     e(  7 -  7) =     14.94729  eV     1   -->   ?

 **************************************************************************

 **************************************************************************

                    xk=(   0.15367,   0.00000,   0.00000  )

     Band symmetry, C_4v (4mm)  point group:

     e(  1 -  1) =     -4.66773  eV     1   --> A_1  G_1 D_1   
     e(  2 -  2) =     -2.43784  eV     1   --> B_2  G_4 D_2'  
     e(  3 -  4) =      2.29772  eV     2   --> E    G_5 D_5   
     e(  5 -  5) =      6.16091  eV     1   --> A_1  G_1 D_1   
     e(  6 -  6) =      6.81111  eV     1   --> B_2  G_4 D_2'  
     e(  7 -  7) =     14.97927  eV     1   -->   ?

 **************************************************************************

 **************************************************************************

                    xk=(   0.15446,   0.00000,   0.00000  )

     Band symmetry, C_4v (4mm)  point group:

     e(  1 -  1) =     -4.63390  eV     1   --> A_1  G_1 D_1   
     e(  2 -  2) =     -2.47734  eV     1   --> B_2  G_4 D_2'  
     e(  3 -  4) =      2.29199  eV     2   --> E    G_5 D_5   
     e(  5 -  5) =      6.16518  eV     1   --> A_1  G_1 D_1   
     e(  6 -  6) =      6.79398  eV     1   --> B_2  G_4 D_2'  
     e(  7 -  7) =     15.01069  eV     1   -->   ?

 **************************************************************************

 **************************************************************************

                    xk=(   0.15525,   0.00000,   0.00000  )

     Band symmetry, C_4v (4mm)  point group:

     e(  1 -  1) =     -4.59991  eV     1   --> A_1  G_1 D_1   
     e(  2 -  2) =     -2.51678  eV     1   --> B_2  G_4 D_2'  
     e(  3 -  4) =      2.28646  eV     2   --> E    G_5 D_5   
     e(  5 -  5) =      6.16967  eV     1   --> A_1  G_1 D_1   
     e(  6 -  6) =      6.77704  eV     1   --> B_2  G_4 D_2'  
     e(  7 -  7) =     15.04155  eV     1   -->   ?

 **************************************************************************

 **************************************************************************

                    xk=(   0.15604,   0.00000,   0.00000  )

     Band symmetry, C_4v (4mm)  point group:

     e(  1 -  1) =     -4.56577  eV     1   --> A_1  G_1 D_1   
     e(  2 -  2) =     -2.55617  eV     1   --> B_2  G_4 D_2'  
     e(  3 -  4) =      2.28112  eV     2   --> E    G_5 D_5   
     e(  5 -  5) =      6.17439  eV     1   --> A_1  G_1 D_1   
     e(  6 -  6) =      6.76031  eV     1   --> B_2  G_4 D_2'  
     e(  7 -  7) =     15.07179  eV     1   -->   ?

 **************************************************************************

 **************************************************************************

                    xk=(   0.15684,   0.00000,   0.00000  )

     Band symmetry, C_4v (4mm)  point group:

     e(  1 -  1) =     -4.53148  eV     1   --> A_1  G_1 D_1   
     e(  2 -  2) =     -2.59550  eV     1   --> B_2  G_4 D_2'  
     e(  3 -  4) =      2.27597  eV     2   --> E    G_5 D_5   
     e(  5 -  5) =      6.17934  eV     1   --> A_1  G_1 D_1   
     e(  6 -  6) =      6.74378  eV     1   --> B_2  G_4 D_2'  
     e(  7 -  7) =     15.10140  eV     1   -->   ?

 **************************************************************************

 **************************************************************************

                    xk=(   0.15763,   0.00000,   0.00000  )

     Band symmetry, C_4v (4mm)  point group:

     e(  1 -  1) =     -4.49704  eV     1   --> A_1  G_1 D_1   
     e(  2 -  2) =     -2.63478  eV     1   --> B_2  G_4 D_2'  
     e(  3 -  4) =      2.27100  eV     2   --> E    G_5 D_5   
     e(  5 -  5) =      6.18452  eV     1   --> A_1  G_1 D_1   
     e(  6 -  6) =      6.72745  eV     1   --> B_2  G_4 D_2'  
     e(  7 -  7) =     15.13034  eV     1   -->   ?

 **************************************************************************

 **************************************************************************

                    xk=(   0.15842,   0.00000,   0.00000  )

     Band symmetry, C_4v (4mm)  point group:

     e(  1 -  1) =     -4.46246  eV     1   --> A_1  G_1 D_1   
     e(  2 -  2) =     -2.67400  eV     1   --> B_2  G_4 D_2'  
     e(  3 -  4) =      2.26624  eV     2   --> E    G_5 D_5   
     e(  5 -  5) =      6.18993  eV     1   --> A_1  G_1 D_1   
     e(  6 -  6) =      6.71133  eV     1   --> B_2  G_4 D_2'  
     e(  7 -  7) =     15.15857  eV     1   -->   ?

 **************************************************************************

 **************************************************************************

                    xk=(   0.15921,   0.00000,   0.00000  )

     Band symmetry, C_4v (4mm)  point group:

     e(  1 -  1) =     -4.42773  eV     1   --> A_1  G_1 D_1   
     e(  2 -  2) =     -2.71317  eV     1   --> B_2  G_4 D_2'  
     e(  3 -  4) =      2.26167  eV     2   --> E    G_5 D_5   
     e(  5 -  5) =      6.19556  eV     1   --> A_1  G_1 D_1   
     e(  6 -  6) =      6.69541  eV     1   --> B_2  G_4 D_2'  
     e(  7 -  7) =     15.18607  eV     1   -->   ?

 **************************************************************************

 **************************************************************************

                    xk=(   0.16000,   0.00000,   0.00000  )

     Band symmetry, C_4v (4mm)  point group:

     e(  1 -  1) =     -4.39286  eV     1   --> A_1  G_1 D_1   
     e(  2 -  2) =     -2.75227  eV     1   --> B_2  G_4 D_2'  
     e(  3 -  4) =      2.25729  eV     2   --> E    G_5 D_5   
     e(  5 -  5) =      6.20143  eV     1   --> A_1  G_1 D_1   
     e(  6 -  6) =      6.67970  eV     1   --> B_2  G_4 D_2'  
     e(  7 -  7) =     15.21280  eV     1   -->   ?

 **************************************************************************

 **************************************************************************

                    xk=(   0.16080,   0.00000,   0.00000  )

     Band symmetry, C_4v (4mm)  point group:

     e(  1 -  1) =     -4.35786  eV     1   --> A_1  G_1 D_1   
     e(  2 -  2) =     -2.79131  eV     1   --> B_2  G_4 D_2'  
     e(  3 -  4) =      2.25310  eV     2   --> E    G_5 D_5   
     e(  5 -  5) =      6.20752  eV     1   --> A_1  G_1 D_1   
     e(  6 -  6) =      6.66419  eV     1   --> B_2  G_4 D_2'  
     e(  7 -  7) =     15.23871  eV     1   -->   ?

 **************************************************************************

 **************************************************************************

                    xk=(   0.16159,   0.00000,   0.00000  )

     Band symmetry, C_4v (4mm)  point group:

     e(  1 -  1) =     -4.32272  eV     1   --> A_1  G_1 D_1   
     e(  2 -  2) =     -2.83029  eV     1   --> B_2  G_4 D_2'  
     e(  3 -  4) =      2.24910  eV     2   --> E    G_5 D_5   
     e(  5 -  5) =      6.21384  eV     1   --> A_1  G_1 D_1   
     e(  6 -  6) =      6.64889  eV     1   --> B_2  G_4 D_2'  
     e(  7 -  7) =     15.26379  eV     1   -->   ?

 **************************************************************************

 **************************************************************************

                    xk=(   0.16238,   0.00000,   0.00000  )

     Band symmetry, C_4v (4mm)  point group:

     e(  1 -  1) =     -4.28745  eV     1   --> A_1  G_1 D_1   
     e(  2 -  2) =     -2.86921  eV     1   --> B_2  G_4 D_2'  
     e(  3 -  4) =      2.24530  eV     2   --> E    G_5 D_5   
     e(  5 -  5) =      6.22039  eV     1   --> A_1  G_1 D_1   
     e(  6 -  6) =      6.63380  eV     1   --> B_2  G_4 D_2'  
     e(  7 -  7) =     15.28797  eV     1   -->   ?

 **************************************************************************

 **************************************************************************

                    xk=(   0.16317,   0.00000,   0.00000  )

     Band symmetry, C_4v (4mm)  point group:

     e(  1 -  1) =     -4.25204  eV     1   --> A_1  G_1 D_1   
     e(  2 -  2) =     -2.90806  eV     1   --> B_2  G_4 D_2'  
     e(  3 -  4) =      2.24170  eV     2   --> E    G_5 D_5   
     e(  5 -  5) =      6.22716  eV     1   --> A_1  G_1 D_1   
     e(  6 -  6) =      6.61892  eV     1   --> B_2  G_4 D_2'  
     e(  7 -  7) =     15.31124  eV     1   -->   ?

 **************************************************************************

 **************************************************************************

                    xk=(   0.16397,   0.00000,   0.00000  )

     Band symmetry, C_4v (4mm)  point group:

     e(  1 -  1) =     -4.21651  eV     1   --> A_1  G_1 D_1   
     e(  2 -  2) =     -2.94684  eV     1   --> B_2  G_4 D_2'  
     e(  3 -  4) =      2.23829  eV     2   --> E    G_5 D_5   
     e(  5 -  5) =      6.23416  eV     1   --> A_1  G_1 D_1   
     e(  6 -  6) =      6.60425  eV     1   --> B_2  G_4 D_2'  
     e(  7 -  7) =     15.33355  eV     1   -->   ?

 **************************************************************************

 **************************************************************************

                    xk=(   0.16476,   0.00000,   0.00000  )

     Band symmetry, C_4v (4mm)  point group:

     e(  1 -  1) =     -4.18085  eV     1   --> A_1  G_1 D_1   
     e(  2 -  2) =     -2.98556  eV     1   --> B_2  G_4 D_2'  
     e(  3 -  4) =      2.23507  eV     2   --> E    G_5 D_5   
     e(  5 -  5) =      6.24139  eV     1   --> A_1  G_1 D_1   
     e(  6 -  6) =      6.58979  eV     1   --> B_2  G_4 D_2'  
     e(  7 -  7) =     15.35485  eV     1   -->   ?

 **************************************************************************

 **************************************************************************

                    xk=(   0.16555,   0.00000,   0.00000  )

     Band symmetry, C_4v (4mm)  point group:

     e(  1 -  1) =     -4.14507  eV     1   --> A_1  G_1 D_1   
     e(  2 -  2) =     -3.02422  eV     1   --> B_2  G_4 D_2'  
     e(  3 -  4) =      2.23204  eV     2   --> E    G_5 D_5   
     e(  5 -  5) =      6.24884  eV     1   --> A_1  G_1 D_1   
     e(  6 -  6) =      6.57554  eV     1   --> B_2  G_4 D_2'  
     e(  7 -  7) =     15.37512  eV     1   -->   ?

 **************************************************************************

 **************************************************************************

                    xk=(   0.16634,   0.00000,   0.00000  )

     Band symmetry, C_4v (4mm)  point group:

     e(  1 -  1) =     -4.10917  eV     1   --> A_1  G_1 D_1   
     e(  2 -  2) =     -3.06280  eV     1   --> B_2  G_4 D_2'  
     e(  3 -  4) =      2.22921  eV     2   --> E    G_5 D_5   
     e(  5 -  5) =      6.25652  eV     1   --> A_1  G_1 D_1   
     e(  6 -  6) =      6.56150  eV     1   --> B_2  G_4 D_2'  
     e(  7 -  7) =     15.39430  eV     1   -->   ?

 **************************************************************************

 **************************************************************************

                    xk=(   0.16713,   0.00000,   0.00000  )

     Band symmetry, C_4v (4mm)  point group:

     e(  1 -  1) =     -4.07315  eV     1   --> A_1  G_1 D_1   
     e(  2 -  2) =     -3.10131  eV     1   --> B_2  G_4 D_2'  
     e(  3 -  4) =      2.22658  eV     2   --> E    G_5 D_5   
     e(  5 -  5) =      6.26442  eV     1   --> A_1  G_1 D_1   
     e(  6 -  6) =      6.54767  eV     1   --> B_2  G_4 D_2'  
     e(  7 -  7) =     15.41237  eV     1   -->   ?

 **************************************************************************

 **************************************************************************

                    xk=(   0.16793,   0.00000,   0.00000  )

     Band symmetry, C_4v (4mm)  point group:

     e(  1 -  1) =     -4.03701  eV     1   --> A_1  G_1 D_1   
     e(  2 -  2) =     -3.13977  eV     1   --> B_2  G_4 D_2'  
     e(  3 -  4) =      2.22413  eV     2   --> E    G_5 D_5   
     e(  5 -  5) =      6.27255  eV     1   --> A_1  G_1 D_1   
     e(  6 -  6) =      6.53406  eV     1   --> B_2  G_4 D_2'  
     e(  7 -  7) =     15.42928  eV     1   -->   ?

 **************************************************************************

 **************************************************************************

                    xk=(   0.16872,   0.00000,   0.00000  )

     Band symmetry, C_4v (4mm)  point group:

     e(  1 -  1) =     -4.00076  eV     1   --> A_1  G_1 D_1   
     e(  2 -  2) =     -3.17814  eV     1   --> B_2  G_4 D_2'  
     e(  3 -  4) =      2.22189  eV     2   --> E    G_5 D_5   
     e(  5 -  5) =      6.28090  eV     1   --> A_1  G_1 D_1   
     e(  6 -  6) =      6.52066  eV     1   --> B_2  G_4 D_2'  
     e(  7 -  7) =     15.44500  eV     1   -->   ?

 **************************************************************************

 **************************************************************************

                    xk=(   0.16951,   0.00000,   0.00000  )

     Band symmetry, C_4v (4mm)  point group:

     e(  1 -  1) =     -3.96440  eV     1   --> A_1  G_1 D_1   
     e(  2 -  2) =     -3.21644  eV     1   --> B_2  G_4 D_2'  
     e(  3 -  4) =      2.21984  eV     2   --> E    G_5 D_5   
     e(  5 -  5) =      6.28948  eV     1   --> A_1  G_1 D_1   
     e(  6 -  6) =      6.50747  eV     1   --> B_2  G_4 D_2'  
     e(  7 -  7) =     15.45949  eV     1   -->   ?

 **************************************************************************

 **************************************************************************

                    xk=(   0.17030,   0.00000,   0.00000  )

     Band symmetry, C_4v (4mm)  point group:

     e(  1 -  1) =     -3.92792  eV     1   --> A_1  G_1 D_1   
     e(  2 -  2) =     -3.25466  eV     1   --> B_2  G_4 D_2'  
     e(  3 -  4) =      2.21798  eV     2   --> E    G_5 D_5   
     e(  5 -  5) =      6.29828  eV     1   --> A_1  G_1 D_1   
     e(  6 -  6) =      6.49450  eV     1   --> B_2  G_4 D_2'  
     e(  7 -  7) =     15.47271  eV     1   -->   ?

 **************************************************************************

 **************************************************************************

                    xk=(   0.17109,   0.00000,   0.00000  )

     Band symmetry, C_4v (4mm)  point group:

     e(  1 -  1) =     -3.89134  eV     1   --> A_1  G_1 D_1   
     e(  2 -  2) =     -3.29280  eV     1   --> B_2  G_4 D_2'  
     e(  3 -  4) =      2.21632  eV     2   --> E    G_5 D_5   
     e(  5 -  5) =      6.30730  eV     1   --> A_1  G_1 D_1   
     e(  6 -  6) =      6.48174  eV     1   --> B_2  G_4 D_2'  
     e(  7 -  7) =     15.48464  eV     1   -->   ?

 **************************************************************************

 **************************************************************************

                    xk=(   0.17189,   0.00000,   0.00000  )

     Band symmetry, C_4v (4mm)  point group:

     e(  1 -  1) =     -3.85465  eV     1   --> A_1  G_1 D_1   
     e(  2 -  2) =     -3.33087  eV     1   --> B_2  G_4 D_2'  
     e(  3 -  4) =      2.21486  eV     2   --> E    G_5 D_5   
     e(  5 -  5) =      6.31655  eV     1   --> A_1  G_1 D_1   
     e(  6 -  6) =      6.46920  eV     1   --> B_2  G_4 D_2'  
     e(  7 -  7) =     15.49524  eV     1   -->   ?

 **************************************************************************

 **************************************************************************

                    xk=(   0.17268,   0.00000,   0.00000  )

     Band symmetry, C_4v (4mm)  point group:

     e(  1 -  1) =     -3.81785  eV     1   --> A_1  G_1 D_1   
     e(  2 -  2) =     -3.36885  eV     1   --> B_2  G_4 D_2'  
     e(  3 -  4) =      2.21359  eV     2   --> E    G_5 D_5   
     e(  5 -  5) =      6.32602  eV     1   --> A_1  G_1 D_1   
     e(  6 -  6) =      6.45687  eV     1   --> B_2  G_4 D_2'  
     e(  7 -  7) =     15.50449  eV     1   -->   ?

 **************************************************************************

 **************************************************************************

                    xk=(   0.17347,   0.00000,   0.00000  )

     Band symmetry, C_4v (4mm)  point group:

     e(  1 -  1) =     -3.78095  eV     1   --> A_1  G_1 D_1   
     e(  2 -  2) =     -3.40676  eV     1   --> B_2  G_4 D_2'  
     e(  3 -  4) =      2.21251  eV     2   --> E    G_5 D_5   
     e(  5 -  5) =      6.33571  eV     1   --> A_1  G_1 D_1   
     e(  6 -  6) =      6.44477  eV     1   --> B_2  G_4 D_2'  
     e(  7 -  7) =     15.51236  eV     1   -->   ?

 **************************************************************************

 **************************************************************************

                    xk=(   0.17426,   0.00000,   0.00000  )

     Band symmetry, C_4v (4mm)  point group:

     e(  1 -  1) =     -3.74396  eV     1   --> A_1  G_1 D_1   
     e(  2 -  2) =     -3.44458  eV     1   --> B_2  G_4 D_2'  
     e(  3 -  4) =      2.21163  eV     2   --> E    G_5 D_5   
     e(  5 -  5) =      6.34563  eV     1   --> A_1  G_1 D_1   
     e(  6 -  6) =      6.43288  eV     1   --> B_2  G_4 D_2'  
     e(  7 -  7) =     15.51882  eV     1   -->   ?

 **************************************************************************

 **************************************************************************

                    xk=(   0.17505,   0.00000,   0.00000  )

     Band symmetry, C_4v (4mm)  point group:

     e(  1 -  1) =     -3.70686  eV     1   --> A_1  G_1 D_1   
     e(  2 -  2) =     -3.48231  eV     1   --> B_2  G_4 D_2'  
     e(  3 -  4) =      2.21095  eV     2   --> E    G_5 D_5   
     e(  5 -  5) =      6.35576  eV     1   --> A_1  G_1 D_1   
     e(  6 -  6) =      6.42120  eV     1   --> B_2  G_4 D_2'  
     e(  7 -  7) =     15.52387  eV     1   -->   ?

 **************************************************************************

 **************************************************************************

                    xk=(   0.17585,   0.00000,   0.00000  )

     Band symmetry, C_4v (4mm)  point group:

     e(  1 -  1) =     -3.66967  eV     1   --> A_1  G_1 D_1   
     e(  2 -  2) =     -3.51996  eV     1   --> B_2  G_4 D_2'  
     e(  3 -  4) =      2.21046  eV     2   --> E    G_5 D_5   
     e(  5 -  5) =      6.36612  eV     1   --> A_1  G_1 D_1   
     e(  6 -  6) =      6.40975  eV     1   --> B_2  G_4 D_2'  
     e(  7 -  7) =     15.52749  eV     1   -->   ?

 **************************************************************************

 **************************************************************************

                    xk=(   0.17664,   0.00000,   0.00000  )

     Band symmetry, C_4v (4mm)  point group:

     e(  1 -  1) =     -3.63238  eV     1   --> A_1  G_1 D_1   
     e(  2 -  2) =     -3.55752  eV     1   --> B_2  G_4 D_2'  
     e(  3 -  4) =      2.21017  eV     2   --> E    G_5 D_5   
     e(  5 -  5) =      6.37670  eV     1   --> A_1  G_1 D_1   
     e(  6 -  6) =      6.39851  eV     1   --> B_2  G_4 D_2'  
     e(  7 -  7) =     15.52966  eV     1   -->   ?

 **************************************************************************

 **************************************************************************

                    xk=(   0.17743,   0.00000,   0.00000  )

     zone border point and non-symmorphic group 
     symmetry decomposition not available

 **************************************************************************
 
     BANDS        :    11.64s CPU        23.05s WALL

 
   This run was terminated on:  17:21:54  16Sep2020            

=------------------------------------------------------------------------------=
   JOB DONE.
=------------------------------------------------------------------------------=
