
     Program PWSCF v.6.2 starts on 10Jun2020 at  5:28:47 

     This program is part of the open-source Quantum ESPRESSO suite
     for quantum simulation of materials; please cite
         "P. Giannozzi et al., J. Phys.:Condens. Matter 21 395502 (2009);
         "P. Giannozzi et al., J. Phys.:Condens. Matter 29 465901 (2017);
          URL http://www.quantum-espresso.org", 
     in publications or presentations arising from this work. More details at
     http://www.quantum-espresso.org/quote

     Parallel version (MPI), running on    16 processors

     MPI processes distributed on     1 nodes
     R & G space division:  proc/nbgrp/npool/nimage =      16
     Waiting for input...
     Reading input from standard input
     Message from routine read_cards :
     DEPRECATED: no units specified in CELL_PARAMETERS card

     Current dimensions of program PWSCF are:
     Max number of different atomic species (ntypx) = 10
     Max number of k-points (npk) =  40000
     Max angular momentum in pseudopotentials (lmaxx) =  3

     Subspace diagonalization in iterative solution of the eigenvalue problem:
     one sub-group per band group will be used
     scalapack distributed-memory algorithm (size of sub-group:  2*  2 procs)

 
     Parallelization info
     --------------------
     sticks:   dense  smooth     PW     G-vecs:    dense   smooth      PW
     Min          48      48     15                  897      897     152
     Max          49      49     16                  901      901     155
     Sum         769     769    241                14361    14361    2445
 


     bravais-lattice index     =            0
     lattice parameter (alat)  =       1.8897  a.u.
     unit-cell volume          =     304.2860 (a.u.)^3
     number of atoms/cell      =            2
     number of atomic types    =            1
     number of electrons       =         8.00
     number of Kohn-Sham states=            8
     kinetic-energy cutoff     =      50.0000  Ry
     charge density cutoff     =     200.0000  Ry
     convergence threshold     =      1.0E-06
     mixing beta               =       0.7000
     number of iterations used =            8  plain     mixing
     Exchange-correlation      =  SLA  PW   PBX  PBC ( 1  4  3  4 0 0)

     celldm(1)=   1.889726  celldm(2)=   0.000000  celldm(3)=   0.000000
     celldm(4)=   0.000000  celldm(5)=   0.000000  celldm(6)=   0.000000

     crystal axes: (cart. coord. in units of alat)
               a(1) = (   0.000000   2.825000   2.825000 )  
               a(2) = (   2.825000   0.000000   2.825000 )  
               a(3) = (   2.825000   2.825000   0.000000 )  

     reciprocal axes: (cart. coord. in units 2 pi/alat)
               b(1) = ( -0.176991  0.176991  0.176991 )  
               b(2) = (  0.176991 -0.176991  0.176991 )  
               b(3) = (  0.176991  0.176991 -0.176991 )  


     PseudoPot. # 1 for Ge read from file:
     /shared/ESPRESSO/PSLIBRARY/1.0.0/pbe/PSEUDOPOTENTIALS/Ge.pbe-n-kjpaw_psl.1.0.0.UPF
     MD5 check sum: e6063357164f7ec107b9a3d2bf12fbbf
     Pseudo is Projector augmented-wave + core cor, Zval =  4.0
     Generated using "atomic" code by A. Dal Corso  (Quantum ESPRESSO distribution)
     Shape of augmentation charge: PSQ
     Using radial grid of 1207 points,  4 beta functions with: 
                l(1) =   0
                l(2) =   0
                l(3) =   1
                l(4) =   1
     Q(r) pseudized with 0 coefficients 


     atomic species   valence    mass     pseudopotential
        Ge             4.00    72.63000     Ge( 1.00)

     48 Sym. Ops., with inversion, found (24 have fractional translation)



   Cartesian axes

     site n.     atom                  positions (alat units)
         1           Ge  tau(   1) = (   0.0000000   0.0000000   0.0000000  )
         2           Ge  tau(   2) = (   1.4125000   1.4125000   1.4125000  )

     number of k points=   195  Fermi-Dirac smearing, width (Ry)=  0.0070

     Number of k-points >= 100: set verbosity='high' to print them.

     Dense  grid:    14361 G-vectors     FFT dimensions: (  36,  36,  36)

     Estimated max dynamical RAM per process >       4.09 MB

     Estimated total dynamical RAM >      65.43 MB

     Initial potential from superposition of free atoms

     starting charge    7.99847, renormalised to    8.00000
     Starting wfc are    8 randomized atomic wfcs
     Checking if some PAW data can be deallocated... 

     total cpu time spent up to now is        3.3 secs

     Self-consistent Calculation

     iteration #  1     ecut=    50.00 Ry     beta= 0.70
     Davidson diagonalization with overlap
     ethr =  1.00E-02,  avg # of iterations =  3.1

     Threshold (ethr) on eigenvalues was too large:
     Diagonalizing with lowered threshold

     Davidson diagonalization with overlap
     ethr =  3.97E-04,  avg # of iterations =  1.9

     total cpu time spent up to now is       48.8 secs

     total energy              =    -328.23399798 Ry
     Harris-Foulkes estimate   =    -328.24000277 Ry
     estimated scf accuracy    <       0.03190408 Ry

     iteration #  2     ecut=    50.00 Ry     beta= 0.70
     Davidson diagonalization with overlap
     ethr =  3.99E-04,  avg # of iterations =  1.0

     total cpu time spent up to now is       52.2 secs

     total energy              =    -328.23482590 Ry
     Harris-Foulkes estimate   =    -328.23491208 Ry
     estimated scf accuracy    <       0.00167037 Ry

     iteration #  3     ecut=    50.00 Ry     beta= 0.70
     Davidson diagonalization with overlap
     ethr =  2.09E-05,  avg # of iterations =  1.9

     total cpu time spent up to now is       55.5 secs

     total energy              =    -328.23487447 Ry
     Harris-Foulkes estimate   =    -328.23487042 Ry
     estimated scf accuracy    <       0.00001688 Ry

     iteration #  4     ecut=    50.00 Ry     beta= 0.70
     Davidson diagonalization with overlap
     ethr =  2.11E-07,  avg # of iterations =  2.5

     total cpu time spent up to now is       59.9 secs

     End of self-consistent calculation

     Number of k-points >= 100: set verbosity='high' to print the bands.

     the Fermi energy is     5.9744 ev

!    total energy              =    -328.23487787 Ry
     Harris-Foulkes estimate   =    -328.23487772 Ry
     estimated scf accuracy    <       0.00000012 Ry

     total all-electron energy =     -8395.999646 Ry

     The total energy is the sum of the following terms:

     one-electron contribution =       5.57629381 Ry
     hartree contribution      =       1.14888038 Ry
     xc contribution           =     -13.27341392 Ry
     ewald contribution        =     -16.14482554 Ry
     one-center paw contrib.   =    -305.54172249 Ry
     smearing contrib. (-TS)   =      -0.00009011 Ry

     convergence has been achieved in   4 iterations

     Writing output data file scf.save
 
     init_run     :      1.88s CPU      2.11s WALL (       1 calls)
     electrons    :     42.39s CPU     57.18s WALL (       1 calls)

     Called by init_run:
     wfcinit      :      1.62s CPU      1.68s WALL (       1 calls)
     potinit      :      0.11s CPU      0.12s WALL (       1 calls)

     Called by electrons:
     c_bands      :     40.15s CPU     54.22s WALL (       5 calls)
     sum_band     :      1.92s CPU      2.04s WALL (       5 calls)
     v_of_rho     :      0.04s CPU      0.05s WALL (       5 calls)
     newd         :      0.02s CPU      0.02s WALL (       5 calls)
     PAW_pot      :      0.30s CPU      0.35s WALL (       5 calls)
     mix_rho      :      0.01s CPU      0.01s WALL (       5 calls)

     Called by c_bands:
     init_us_2    :      0.17s CPU      0.19s WALL (    2145 calls)
     cegterg      :     39.15s CPU     52.96s WALL (     975 calls)

     Called by sum_band:
     sum_band:bec :      0.02s CPU      0.02s WALL (     975 calls)
     addusdens    :      0.01s CPU      0.02s WALL (       5 calls)

     Called by *egterg:
     h_psi        :     13.31s CPU     15.31s WALL (    3188 calls)
     s_psi        :      0.15s CPU      0.27s WALL (    3188 calls)
     g_psi        :      0.05s CPU      0.04s WALL (    2018 calls)
     cdiaghg      :     19.88s CPU     29.62s WALL (    2798 calls)

     Called by h_psi:
     h_psi:pot    :     13.27s CPU     15.27s WALL (    3188 calls)
     h_psi:calbec :      0.99s CPU      1.30s WALL (    3188 calls)
     vloc_psi     :     12.09s CPU     13.66s WALL (    3188 calls)
     add_vuspsi   :      0.18s CPU      0.28s WALL (    3188 calls)

     General routines
     calbec       :      1.09s CPU      1.47s WALL (    4163 calls)
     fft          :      0.04s CPU      0.04s WALL (      67 calls)
     fftw         :     13.12s CPU     14.65s WALL (   47310 calls)
     davcio       :      0.00s CPU      0.01s WALL (     195 calls)
 
     Parallel routines
     fft_scatt_xy :      0.51s CPU      0.57s WALL (   47377 calls)
     fft_scatt_yz :      9.72s CPU     10.90s WALL (   47377 calls)
 
     PWSCF        :  0m44.88s CPU     5m 6.08s WALL

 
   This run was terminated on:   5:33:53  10Jun2020            

=------------------------------------------------------------------------------=
   JOB DONE.
=------------------------------------------------------------------------------=
