
     Program BANDS v.6.2 starts on 10Sep2020 at 22: 7:29 

     This program is part of the open-source Quantum ESPRESSO suite
     for quantum simulation of materials; please cite
         "P. Giannozzi et al., J. Phys.:Condens. Matter 21 395502 (2009);
         "P. Giannozzi et al., J. Phys.:Condens. Matter 29 465901 (2017);
          URL http://www.quantum-espresso.org", 
     in publications or presentations arising from this work. More details at
     http://www.quantum-espresso.org/quote

     Parallel version (MPI), running on    32 processors

     MPI processes distributed on     2 nodes
     R & G space division:  proc/nbgrp/npool/nimage =      32

     Reading data from directory:
     /home/theodoros/PROJ_TUTORIALS/theodoros/Ge_bulk/test/SCF/tmp/scf.save/

     IMPORTANT: XC functional enforced from input :
     Exchange-correlation      = PBE ( 1  4  3  4 0 0)
     Any further DFT definition will be discarded
     Please, verify this is what you really want

 
     Parallelization info
     --------------------
     sticks:   dense  smooth     PW     G-vecs:    dense   smooth      PW
     Min          17      17      5                  268      268      43
     Max          18      18      6                  272      272      46
     Sum         559     559    163                 8609     8609    1411
 
     high-symmetry point:  0.0884 0.0884 0.0884   x coordinate   0.0000
     high-symmetry point:  0.0000 0.0000 0.0000   x coordinate   0.1531
     high-symmetry point:  0.1767 0.0000 0.0000   x coordinate   0.3298

     Plottable bands (eV) written to file bands.dat.gnu
     Bands written to file bands.dat

 **************************************************************************

                    xk=(   0.08837,   0.08837,   0.08837  )

     point group C_3v (3m)  
     there are  3 classes
     the character table:

       E     2C3   3s_v 
A_1    1.00  1.00  1.00
A_2    1.00  1.00 -1.00
E      2.00 -1.00  0.00

     the symmetry operations in each class and the name of the first element:

     E        1
                                                                 
     2C3      2    3
                                                                 
     3s_v     4    5    6
                                                                 

     Band symmetry, C_3v (3m)   point group:

     e(  1 -  1) =     -4.87097  eV     1   --> A_1  L_1       
     e(  2 -  2) =     -1.77769  eV     1   --> A_1  L_1       
     e(  3 -  4) =      4.41984  eV     2   --> E    L_3       
     e(  5 -  5) =      6.01153  eV     1   --> A_1  L_1       
     e(  6 -  7) =      9.53538  eV     2   --> E    L_3       

 **************************************************************************

 **************************************************************************

                    xk=(   0.08805,   0.08805,   0.08805  )

     Band symmetry, C_3v (3m)   point group:

     e(  1 -  1) =     -4.87112  eV     1   --> A_1  L_1       
     e(  2 -  2) =     -1.77746  eV     1   --> A_1  L_1       
     e(  3 -  4) =      4.41987  eV     2   --> E    L_3       
     e(  5 -  5) =      6.01156  eV     1   --> A_1  L_1       
     e(  6 -  7) =      9.53539  eV     2   --> E    L_3       

 **************************************************************************

 **************************************************************************

                    xk=(   0.08773,   0.08773,   0.08773  )

     Band symmetry, C_3v (3m)   point group:

     e(  1 -  1) =     -4.87157  eV     1   --> A_1  L_1       
     e(  2 -  2) =     -1.77676  eV     1   --> A_1  L_1       
     e(  3 -  4) =      4.41995  eV     2   --> E    L_3       
     e(  5 -  5) =      6.01165  eV     1   --> A_1  L_1       
     e(  6 -  7) =      9.53544  eV     2   --> E    L_3       

 **************************************************************************

 **************************************************************************

                    xk=(   0.08741,   0.08741,   0.08741  )

     Band symmetry, C_3v (3m)   point group:

     e(  1 -  1) =     -4.87231  eV     1   --> A_1  L_1       
     e(  2 -  2) =     -1.77561  eV     1   --> A_1  L_1       
     e(  3 -  4) =      4.42009  eV     2   --> E    L_3       
     e(  5 -  5) =      6.01179  eV     1   --> A_1  L_1       
     e(  6 -  7) =      9.53551  eV     2   --> E    L_3       

 **************************************************************************

 **************************************************************************

                    xk=(   0.08709,   0.08709,   0.08709  )

     Band symmetry, C_3v (3m)   point group:

     e(  1 -  1) =     -4.87335  eV     1   --> A_1  L_1       
     e(  2 -  2) =     -1.77399  eV     1   --> A_1  L_1       
     e(  3 -  4) =      4.42029  eV     2   --> E    L_3       
     e(  5 -  5) =      6.01199  eV     1   --> A_1  L_1       
     e(  6 -  7) =      9.53561  eV     2   --> E    L_3       

 **************************************************************************

 **************************************************************************

                    xk=(   0.08676,   0.08676,   0.08676  )

     Band symmetry, C_3v (3m)   point group:

     e(  1 -  1) =     -4.87468  eV     1   --> A_1  L_1       
     e(  2 -  2) =     -1.77191  eV     1   --> A_1  L_1       
     e(  3 -  4) =      4.42054  eV     2   --> E    L_3       
     e(  5 -  5) =      6.01225  eV     1   --> A_1  L_1       
     e(  6 -  7) =      9.53574  eV     2   --> E    L_3       

 **************************************************************************

 **************************************************************************

                    xk=(   0.08644,   0.08644,   0.08644  )

     Band symmetry, C_3v (3m)   point group:

     e(  1 -  1) =     -4.87631  eV     1   --> A_1  L_1       
     e(  2 -  2) =     -1.76937  eV     1   --> A_1  L_1       
     e(  3 -  4) =      4.42085  eV     2   --> E    L_3       
     e(  5 -  5) =      6.01257  eV     1   --> A_1  L_1       
     e(  6 -  7) =      9.53590  eV     2   --> E    L_3       

 **************************************************************************

 **************************************************************************

                    xk=(   0.08612,   0.08612,   0.08612  )

     Band symmetry, C_3v (3m)   point group:

     e(  1 -  1) =     -4.87823  eV     1   --> A_1  L_1       
     e(  2 -  2) =     -1.76637  eV     1   --> A_1  L_1       
     e(  3 -  4) =      4.42121  eV     2   --> E    L_3       
     e(  5 -  5) =      6.01294  eV     1   --> A_1  L_1       
     e(  6 -  7) =      9.53609  eV     2   --> E    L_3       

 **************************************************************************

 **************************************************************************

                    xk=(   0.08580,   0.08580,   0.08580  )

     Band symmetry, C_3v (3m)   point group:

     e(  1 -  1) =     -4.88044  eV     1   --> A_1  L_1       
     e(  2 -  2) =     -1.76292  eV     1   --> A_1  L_1       
     e(  3 -  4) =      4.42163  eV     2   --> E    L_3       
     e(  5 -  5) =      6.01337  eV     1   --> A_1  L_1       
     e(  6 -  7) =      9.53630  eV     2   --> E    L_3       

 **************************************************************************

 **************************************************************************

                    xk=(   0.08548,   0.08548,   0.08548  )

     Band symmetry, C_3v (3m)   point group:

     e(  1 -  1) =     -4.88294  eV     1   --> A_1  L_1       
     e(  2 -  2) =     -1.75901  eV     1   --> A_1  L_1       
     e(  3 -  4) =      4.42211  eV     2   --> E    L_3       
     e(  5 -  5) =      6.01386  eV     1   --> A_1  L_1       
     e(  6 -  7) =      9.53654  eV     2   --> E    L_3       

 **************************************************************************

 **************************************************************************

                    xk=(   0.08516,   0.08516,   0.08516  )

     Band symmetry, C_3v (3m)   point group:

     e(  1 -  1) =     -4.88572  eV     1   --> A_1  L_1       
     e(  2 -  2) =     -1.75466  eV     1   --> A_1  L_1       
     e(  3 -  4) =      4.42264  eV     2   --> E    L_3       
     e(  5 -  5) =      6.01440  eV     1   --> A_1  L_1       
     e(  6 -  7) =      9.53682  eV     2   --> E    L_3       

 **************************************************************************

 **************************************************************************

                    xk=(   0.08484,   0.08484,   0.08484  )

     Band symmetry, C_3v (3m)   point group:

     e(  1 -  1) =     -4.88879  eV     1   --> A_1  L_1       
     e(  2 -  2) =     -1.74985  eV     1   --> A_1  L_1       
     e(  3 -  4) =      4.42323  eV     2   --> E    L_3       
     e(  5 -  5) =      6.01501  eV     1   --> A_1  L_1       
     e(  6 -  7) =      9.53712  eV     2   --> E    L_3       

 **************************************************************************

 **************************************************************************

                    xk=(   0.08451,   0.08451,   0.08451  )

     Band symmetry, C_3v (3m)   point group:

     e(  1 -  1) =     -4.89214  eV     1   --> A_1  L_1       
     e(  2 -  2) =     -1.74459  eV     1   --> A_1  L_1       
     e(  3 -  4) =      4.42387  eV     2   --> E    L_3       
     e(  5 -  5) =      6.01567  eV     1   --> A_1  L_1       
     e(  6 -  7) =      9.53744  eV     2   --> E    L_3       

 **************************************************************************

 **************************************************************************

                    xk=(   0.08419,   0.08419,   0.08419  )

     Band symmetry, C_3v (3m)   point group:

     e(  1 -  1) =     -4.89576  eV     1   --> A_1  L_1       
     e(  2 -  2) =     -1.73890  eV     1   --> A_1  L_1       
     e(  3 -  4) =      4.42457  eV     2   --> E    L_3       
     e(  5 -  5) =      6.01638  eV     1   --> A_1  L_1       
     e(  6 -  7) =      9.53780  eV     2   --> E    L_3       

 **************************************************************************

 **************************************************************************

                    xk=(   0.08387,   0.08387,   0.08387  )

     Band symmetry, C_3v (3m)   point group:

     e(  1 -  1) =     -4.89966  eV     1   --> A_1  L_1       
     e(  2 -  2) =     -1.73276  eV     1   --> A_1  L_1       
     e(  3 -  4) =      4.42532  eV     2   --> E    L_3       
     e(  5 -  5) =      6.01716  eV     1   --> A_1  L_1       
     e(  6 -  7) =      9.53818  eV     2   --> E    L_3       

 **************************************************************************

 **************************************************************************

                    xk=(   0.08355,   0.08355,   0.08355  )

     Band symmetry, C_3v (3m)   point group:

     e(  1 -  1) =     -4.90383  eV     1   --> A_1  L_1       
     e(  2 -  2) =     -1.72619  eV     1   --> A_1  L_1       
     e(  3 -  4) =      4.42614  eV     2   --> E    L_3       
     e(  5 -  5) =      6.01799  eV     1   --> A_1  L_1       
     e(  6 -  7) =      9.53859  eV     2   --> E    L_3       

 **************************************************************************

 **************************************************************************

                    xk=(   0.08323,   0.08323,   0.08323  )

     Band symmetry, C_3v (3m)   point group:

     e(  1 -  1) =     -4.90827  eV     1   --> A_1  L_1       
     e(  2 -  2) =     -1.71918  eV     1   --> A_1  L_1       
     e(  3 -  4) =      4.42700  eV     2   --> E    L_3       
     e(  5 -  5) =      6.01888  eV     1   --> A_1  L_1       
     e(  6 -  7) =      9.53902  eV     2   --> E    L_3       

 **************************************************************************

 **************************************************************************

                    xk=(   0.08291,   0.08291,   0.08291  )

     Band symmetry, C_3v (3m)   point group:

     e(  1 -  1) =     -4.91298  eV     1   --> A_1  L_1       
     e(  2 -  2) =     -1.71174  eV     1   --> A_1  L_1       
     e(  3 -  4) =      4.42792  eV     2   --> E    L_3       
     e(  5 -  5) =      6.01982  eV     1   --> A_1  L_1       
     e(  6 -  7) =      9.53948  eV     2   --> E    L_3       

 **************************************************************************

 **************************************************************************

                    xk=(   0.08259,   0.08259,   0.08259  )

     Band symmetry, C_3v (3m)   point group:

     e(  1 -  1) =     -4.91794  eV     1   --> A_1  L_1       
     e(  2 -  2) =     -1.70388  eV     1   --> A_1  L_1       
     e(  3 -  4) =      4.42890  eV     2   --> E    L_3       
     e(  5 -  5) =      6.02083  eV     1   --> A_1  L_1       
     e(  6 -  7) =      9.53997  eV     2   --> E    L_3       

 **************************************************************************

 **************************************************************************

                    xk=(   0.08226,   0.08226,   0.08226  )

     Band symmetry, C_3v (3m)   point group:

     e(  1 -  1) =     -4.92315  eV     1   --> A_1  L_1       
     e(  2 -  2) =     -1.69560  eV     1   --> A_1  L_1       
     e(  3 -  4) =      4.42994  eV     2   --> E    L_3       
     e(  5 -  5) =      6.02189  eV     1   --> A_1  L_1       
     e(  6 -  7) =      9.54048  eV     2   --> E    L_3       

 **************************************************************************

 **************************************************************************

                    xk=(   0.08194,   0.08194,   0.08194  )

     Band symmetry, C_3v (3m)   point group:

     e(  1 -  1) =     -4.92862  eV     1   --> A_1  L_1       
     e(  2 -  2) =     -1.68690  eV     1   --> A_1  L_1       
     e(  3 -  4) =      4.43103  eV     2   --> E    L_3       
     e(  5 -  5) =      6.02301  eV     1   --> A_1  L_1       
     e(  6 -  7) =      9.54101  eV     2   --> E    L_3       

 **************************************************************************

 **************************************************************************

                    xk=(   0.08162,   0.08162,   0.08162  )

     Band symmetry, C_3v (3m)   point group:

     e(  1 -  1) =     -4.93434  eV     1   --> A_1  L_1       
     e(  2 -  2) =     -1.67779  eV     1   --> A_1  L_1       
     e(  3 -  4) =      4.43217  eV     2   --> E    L_3       
     e(  5 -  5) =      6.02418  eV     1   --> A_1  L_1       
     e(  6 -  7) =      9.54157  eV     2   --> E    L_3       

 **************************************************************************

 **************************************************************************

                    xk=(   0.08130,   0.08130,   0.08130  )

     Band symmetry, C_3v (3m)   point group:

     e(  1 -  1) =     -4.94030  eV     1   --> A_1  L_1       
     e(  2 -  2) =     -1.66827  eV     1   --> A_1  L_1       
     e(  3 -  4) =      4.43337  eV     2   --> E    L_3       
     e(  5 -  5) =      6.02541  eV     1   --> A_1  L_1       
     e(  6 -  7) =      9.54216  eV     2   --> E    L_3       

 **************************************************************************

 **************************************************************************

                    xk=(   0.08098,   0.08098,   0.08098  )

     Band symmetry, C_3v (3m)   point group:

     e(  1 -  1) =     -4.94649  eV     1   --> A_1  L_1       
     e(  2 -  2) =     -1.65835  eV     1   --> A_1  L_1       
     e(  3 -  4) =      4.43463  eV     2   --> E    L_3       
     e(  5 -  5) =      6.02670  eV     1   --> A_1  L_1       
     e(  6 -  7) =      9.54276  eV     2   --> E    L_3       

 **************************************************************************

 **************************************************************************

                    xk=(   0.08066,   0.08066,   0.08066  )

     Band symmetry, C_3v (3m)   point group:

     e(  1 -  1) =     -4.95292  eV     1   --> A_1  L_1       
     e(  2 -  2) =     -1.64803  eV     1   --> A_1  L_1       
     e(  3 -  4) =      4.43594  eV     2   --> E    L_3       
     e(  5 -  5) =      6.02805  eV     1   --> A_1  L_1       
     e(  6 -  7) =      9.54339  eV     2   --> E    L_3       

 **************************************************************************

 **************************************************************************

                    xk=(   0.08034,   0.08034,   0.08034  )

     Band symmetry, C_3v (3m)   point group:

     e(  1 -  1) =     -4.95958  eV     1   --> A_1  L_1       
     e(  2 -  2) =     -1.63732  eV     1   --> A_1  L_1       
     e(  3 -  4) =      4.43731  eV     2   --> E    L_3       
     e(  5 -  5) =      6.02945  eV     1   --> A_1  L_1       
     e(  6 -  7) =      9.54405  eV     2   --> E    L_3       

 **************************************************************************

 **************************************************************************

                    xk=(   0.08002,   0.08002,   0.08002  )

     Band symmetry, C_3v (3m)   point group:

     e(  1 -  1) =     -4.96646  eV     1   --> A_1  L_1       
     e(  2 -  2) =     -1.62622  eV     1   --> A_1  L_1       
     e(  3 -  4) =      4.43874  eV     2   --> E    L_3       
     e(  5 -  5) =      6.03091  eV     1   --> A_1  L_1       
     e(  6 -  7) =      9.54472  eV     2   --> E    L_3       

 **************************************************************************

 **************************************************************************

                    xk=(   0.07969,   0.07969,   0.07969  )

     Band symmetry, C_3v (3m)   point group:

     e(  1 -  1) =     -4.97355  eV     1   --> A_1  L_1       
     e(  2 -  2) =     -1.61474  eV     1   --> A_1  L_1       
     e(  3 -  4) =      4.44022  eV     2   --> E    L_3       
     e(  5 -  5) =      6.03243  eV     1   --> A_1  L_1       
     e(  6 -  7) =      9.54541  eV     2   --> E    L_3       

 **************************************************************************

 **************************************************************************

                    xk=(   0.07937,   0.07937,   0.07937  )

     Band symmetry, C_3v (3m)   point group:

     e(  1 -  1) =     -4.98086  eV     1   --> A_1  L_1       
     e(  2 -  2) =     -1.60287  eV     1   --> A_1  L_1       
     e(  3 -  4) =      4.44175  eV     2   --> E    L_3       
     e(  5 -  5) =      6.03400  eV     1   --> A_1  L_1       
     e(  6 -  7) =      9.54613  eV     2   --> E    L_3       

 **************************************************************************

 **************************************************************************

                    xk=(   0.07905,   0.07905,   0.07905  )

     Band symmetry, C_3v (3m)   point group:

     e(  1 -  1) =     -4.98838  eV     1   --> A_1  L_1       
     e(  2 -  2) =     -1.59064  eV     1   --> A_1  L_1       
     e(  3 -  4) =      4.44334  eV     2   --> E    L_3       
     e(  5 -  5) =      6.03563  eV     1   --> A_1  L_1       
     e(  6 -  7) =      9.54686  eV     2   --> E    L_3       

 **************************************************************************

 **************************************************************************

                    xk=(   0.07873,   0.07873,   0.07873  )

     Band symmetry, C_3v (3m)   point group:

     e(  1 -  1) =     -4.99610  eV     1   --> A_1  L_1       
     e(  2 -  2) =     -1.57804  eV     1   --> A_1  L_1       
     e(  3 -  4) =      4.44499  eV     2   --> E    L_3       
     e(  5 -  5) =      6.03732  eV     1   --> A_1  L_1       
     e(  6 -  7) =      9.54762  eV     2   --> E    L_3       

 **************************************************************************

 **************************************************************************

                    xk=(   0.07841,   0.07841,   0.07841  )

     Band symmetry, C_3v (3m)   point group:

     e(  1 -  1) =     -5.00402  eV     1   --> A_1  L_1       
     e(  2 -  2) =     -1.56507  eV     1   --> A_1  L_1       
     e(  3 -  4) =      4.44668  eV     2   --> E    L_3       
     e(  5 -  5) =      6.03907  eV     1   --> A_1  L_1       
     e(  6 -  7) =      9.54839  eV     2   --> E    L_3       

 **************************************************************************

 **************************************************************************

                    xk=(   0.07809,   0.07809,   0.07809  )

     Band symmetry, C_3v (3m)   point group:

     e(  1 -  1) =     -5.01214  eV     1   --> A_1  L_1       
     e(  2 -  2) =     -1.55175  eV     1   --> A_1  L_1       
     e(  3 -  4) =      4.44844  eV     2   --> E    L_3       
     e(  5 -  5) =      6.04087  eV     1   --> A_1  L_1       
     e(  6 -  7) =      9.54918  eV     2   --> E    L_3       

 **************************************************************************

 **************************************************************************

                    xk=(   0.07777,   0.07777,   0.07777  )

     Band symmetry, C_3v (3m)   point group:

     e(  1 -  1) =     -5.02043  eV     1   --> A_1  L_1       
     e(  2 -  2) =     -1.53807  eV     1   --> A_1  L_1       
     e(  3 -  4) =      4.45025  eV     2   --> E    L_3       
     e(  5 -  5) =      6.04272  eV     1   --> A_1  L_1       
     e(  6 -  7) =      9.54998  eV     2   --> E    L_3       

 **************************************************************************

 **************************************************************************

                    xk=(   0.07744,   0.07744,   0.07744  )

     Band symmetry, C_3v (3m)   point group:

     e(  1 -  1) =     -5.02891  eV     1   --> A_1  L_1       
     e(  2 -  2) =     -1.52405  eV     1   --> A_1  L_1       
     e(  3 -  4) =      4.45212  eV     2   --> E    L_3       
     e(  5 -  5) =      6.04464  eV     1   --> A_1  L_1       
     e(  6 -  7) =      9.55081  eV     2   --> E    L_3       

 **************************************************************************

 **************************************************************************

                    xk=(   0.07712,   0.07712,   0.07712  )

     Band symmetry, C_3v (3m)   point group:

     e(  1 -  1) =     -5.03757  eV     1   --> A_1  L_1       
     e(  2 -  2) =     -1.50969  eV     1   --> A_1  L_1       
     e(  3 -  4) =      4.45405  eV     2   --> E    L_3       
     e(  5 -  5) =      6.04661  eV     1   --> A_1  L_1       
     e(  6 -  7) =      9.55164  eV     2   --> E    L_3       

 **************************************************************************

 **************************************************************************

                    xk=(   0.07680,   0.07680,   0.07680  )

     Band symmetry, C_3v (3m)   point group:

     e(  1 -  1) =     -5.04640  eV     1   --> A_1  L_1       
     e(  2 -  2) =     -1.49499  eV     1   --> A_1  L_1       
     e(  3 -  4) =      4.45603  eV     2   --> E    L_3       
     e(  5 -  5) =      6.04864  eV     1   --> A_1  L_1       
     e(  6 -  7) =      9.55250  eV     2   --> E    L_3       

 **************************************************************************

 **************************************************************************

                    xk=(   0.07648,   0.07648,   0.07648  )

     Band symmetry, C_3v (3m)   point group:

     e(  1 -  1) =     -5.05540  eV     1   --> A_1  L_1       
     e(  2 -  2) =     -1.47995  eV     1   --> A_1  L_1       
     e(  3 -  4) =      4.45806  eV     2   --> E    L_3       
     e(  5 -  5) =      6.05072  eV     1   --> A_1  L_1       
     e(  6 -  7) =      9.55336  eV     2   --> E    L_3       

 **************************************************************************

 **************************************************************************

                    xk=(   0.07616,   0.07616,   0.07616  )

     Band symmetry, C_3v (3m)   point group:

     e(  1 -  1) =     -5.06456  eV     1   --> A_1  L_1       
     e(  2 -  2) =     -1.46460  eV     1   --> A_1  L_1       
     e(  3 -  4) =      4.46015  eV     2   --> E    L_3       
     e(  5 -  5) =      6.05286  eV     1   --> A_1  L_1       
     e(  6 -  7) =      9.55424  eV     2   --> E    L_3       

 **************************************************************************

 **************************************************************************

                    xk=(   0.07584,   0.07584,   0.07584  )

     Band symmetry, C_3v (3m)   point group:

     e(  1 -  1) =     -5.07387  eV     1   --> A_1  L_1       
     e(  2 -  2) =     -1.44892  eV     1   --> A_1  L_1       
     e(  3 -  4) =      4.46230  eV     2   --> E    L_3       
     e(  5 -  5) =      6.05505  eV     1   --> A_1  L_1       
     e(  6 -  7) =      9.55513  eV     2   --> E    L_3       

 **************************************************************************

 **************************************************************************

                    xk=(   0.07552,   0.07552,   0.07552  )

     Band symmetry, C_3v (3m)   point group:

     e(  1 -  1) =     -5.08334  eV     1   --> A_1  L_1       
     e(  2 -  2) =     -1.43292  eV     1   --> A_1  L_1       
     e(  3 -  4) =      4.46450  eV     2   --> E    L_3       
     e(  5 -  5) =      6.05731  eV     1   --> A_1  L_1       
     e(  6 -  7) =      9.55603  eV     2   --> E    L_3       

 **************************************************************************

 **************************************************************************

                    xk=(   0.07520,   0.07520,   0.07520  )

     Band symmetry, C_3v (3m)   point group:

     e(  1 -  1) =     -5.09295  eV     1   --> A_1  L_1       
     e(  2 -  2) =     -1.41662  eV     1   --> A_1  L_1       
     e(  3 -  4) =      4.46675  eV     2   --> E    L_3       
     e(  5 -  5) =      6.05961  eV     1   --> A_1  L_1       
     e(  6 -  7) =      9.55694  eV     2   --> E    L_3       

 **************************************************************************

 **************************************************************************

                    xk=(   0.07487,   0.07487,   0.07487  )

     Band symmetry, C_3v (3m)   point group:

     e(  1 -  1) =     -5.10270  eV     1   --> A_1  L_1       
     e(  2 -  2) =     -1.40000  eV     1   --> A_1  L_1       
     e(  3 -  4) =      4.46906  eV     2   --> E    L_3       
     e(  5 -  5) =      6.06198  eV     1   --> A_1  L_1       
     e(  6 -  7) =      9.55786  eV     2   --> E    L_3       

 **************************************************************************

 **************************************************************************

                    xk=(   0.07455,   0.07455,   0.07455  )

     Band symmetry, C_3v (3m)   point group:

     e(  1 -  1) =     -5.11259  eV     1   --> A_1  L_1       
     e(  2 -  2) =     -1.38309  eV     1   --> A_1  L_1       
     e(  3 -  4) =      4.47143  eV     2   --> E    L_3       
     e(  5 -  5) =      6.06440  eV     1   --> A_1  L_1       
     e(  6 -  7) =      9.55879  eV     2   --> E    L_3       

 **************************************************************************

 **************************************************************************

                    xk=(   0.07423,   0.07423,   0.07423  )

     Band symmetry, C_3v (3m)   point group:

     e(  1 -  1) =     -5.12262  eV     1   --> A_1  L_1       
     e(  2 -  2) =     -1.36588  eV     1   --> A_1  L_1       
     e(  3 -  4) =      4.47385  eV     2   --> E    L_3       
     e(  5 -  5) =      6.06688  eV     1   --> A_1  L_1       
     e(  6 -  7) =      9.55973  eV     2   --> E    L_3       

 **************************************************************************

 **************************************************************************

                    xk=(   0.07391,   0.07391,   0.07391  )

     Band symmetry, C_3v (3m)   point group:

     e(  1 -  1) =     -5.13277  eV     1   --> A_1  L_1       
     e(  2 -  2) =     -1.34838  eV     1   --> A_1  L_1       
     e(  3 -  4) =      4.47633  eV     2   --> E    L_3       
     e(  5 -  5) =      6.06941  eV     1   --> A_1  L_1       
     e(  6 -  7) =      9.56067  eV     2   --> E    L_3       

 **************************************************************************

 **************************************************************************

                    xk=(   0.07359,   0.07359,   0.07359  )

     Band symmetry, C_3v (3m)   point group:

     e(  1 -  1) =     -5.14304  eV     1   --> A_1  L_1       
     e(  2 -  2) =     -1.33059  eV     1   --> A_1  L_1       
     e(  3 -  4) =      4.47886  eV     2   --> E    L_3       
     e(  5 -  5) =      6.07201  eV     1   --> A_1  L_1       
     e(  6 -  7) =      9.56161  eV     2   --> E    L_3       

 **************************************************************************

 **************************************************************************

                    xk=(   0.07327,   0.07327,   0.07327  )

     Band symmetry, C_3v (3m)   point group:

     e(  1 -  1) =     -5.15343  eV     1   --> A_1  L_1       
     e(  2 -  2) =     -1.31252  eV     1   --> A_1  L_1       
     e(  3 -  4) =      4.48145  eV     2   --> E    L_3       
     e(  5 -  5) =      6.07466  eV     1   --> A_1  L_1       
     e(  6 -  7) =      9.56256  eV     2   --> E    L_3       

 **************************************************************************

 **************************************************************************

                    xk=(   0.07295,   0.07295,   0.07295  )

     Band symmetry, C_3v (3m)   point group:

     e(  1 -  1) =     -5.16393  eV     1   --> A_1  L_1       
     e(  2 -  2) =     -1.29417  eV     1   --> A_1  L_1       
     e(  3 -  4) =      4.48409  eV     2   --> E    L_3       
     e(  5 -  5) =      6.07735  eV     1   --> A_1  L_1       
     e(  6 -  7) =      9.56351  eV     2   --> E    L_3       

 **************************************************************************

 **************************************************************************

                    xk=(   0.07262,   0.07262,   0.07262  )

     Band symmetry, C_3v (3m)   point group:

     e(  1 -  1) =     -5.17455  eV     1   --> A_1  L_1       
     e(  2 -  2) =     -1.27555  eV     1   --> A_1  L_1       
     e(  3 -  4) =      4.48679  eV     2   --> E    L_3       
     e(  5 -  5) =      6.08011  eV     1   --> A_1  L_1       
     e(  6 -  7) =      9.56446  eV     2   --> E    L_3       

 **************************************************************************

 **************************************************************************

                    xk=(   0.07230,   0.07230,   0.07230  )

     Band symmetry, C_3v (3m)   point group:

     e(  1 -  1) =     -5.18526  eV     1   --> A_1  L_1       
     e(  2 -  2) =     -1.25667  eV     1   --> A_1  L_1       
     e(  3 -  4) =      4.48954  eV     2   --> E    L_3       
     e(  5 -  5) =      6.08292  eV     1   --> A_1  L_1       
     e(  6 -  7) =      9.56542  eV     2   --> E    L_3       

 **************************************************************************

 **************************************************************************

                    xk=(   0.07198,   0.07198,   0.07198  )

     Band symmetry, C_3v (3m)   point group:

     e(  1 -  1) =     -5.19608  eV     1   --> A_1  L_1       
     e(  2 -  2) =     -1.23751  eV     1   --> A_1  L_1       
     e(  3 -  4) =      4.49234  eV     2   --> E    L_3       
     e(  5 -  5) =      6.08578  eV     1   --> A_1  L_1       
     e(  6 -  7) =      9.56637  eV     2   --> E    L_3       

 **************************************************************************

 **************************************************************************

                    xk=(   0.07166,   0.07166,   0.07166  )

     Band symmetry, C_3v (3m)   point group:

     e(  1 -  1) =     -5.20700  eV     1   --> A_1  L_1       
     e(  2 -  2) =     -1.21810  eV     1   --> A_1  L_1       
     e(  3 -  4) =      4.49520  eV     2   --> E    L_3       
     e(  5 -  5) =      6.08870  eV     1   --> A_1  L_1       
     e(  6 -  7) =      9.56732  eV     2   --> E    L_3       

 **************************************************************************

 **************************************************************************

                    xk=(   0.07134,   0.07134,   0.07134  )

     Band symmetry, C_3v (3m)   point group:

     e(  1 -  1) =     -5.21800  eV     1   --> A_1  L_1       
     e(  2 -  2) =     -1.19844  eV     1   --> A_1  L_1       
     e(  3 -  4) =      4.49812  eV     2   --> E    L_3       
     e(  5 -  5) =      6.09168  eV     1   --> A_1  L_1       
     e(  6 -  7) =      9.56826  eV     2   --> E    L_3       

 **************************************************************************

 **************************************************************************

                    xk=(   0.07102,   0.07102,   0.07102  )

     Band symmetry, C_3v (3m)   point group:

     e(  1 -  1) =     -5.22909  eV     1   --> A_1  L_1       
     e(  2 -  2) =     -1.17852  eV     1   --> A_1  L_1       
     e(  3 -  4) =      4.50109  eV     2   --> E    L_3       
     e(  5 -  5) =      6.09471  eV     1   --> A_1  L_1       
     e(  6 -  7) =      9.56920  eV     2   --> E    L_3       

 **************************************************************************

 **************************************************************************

                    xk=(   0.07070,   0.07070,   0.07070  )

     Band symmetry, C_3v (3m)   point group:

     e(  1 -  1) =     -5.24027  eV     1   --> A_1  L_1       
     e(  2 -  2) =     -1.15836  eV     1   --> A_1  L_1       
     e(  3 -  4) =      4.50411  eV     2   --> E    L_3       
     e(  5 -  5) =      6.09779  eV     1   --> A_1  L_1       
     e(  6 -  7) =      9.57013  eV     2   --> E    L_3       

 **************************************************************************

 **************************************************************************

                    xk=(   0.07038,   0.07038,   0.07038  )

     Band symmetry, C_3v (3m)   point group:

     e(  1 -  1) =     -5.25153  eV     1   --> A_1  L_1       
     e(  2 -  2) =     -1.13795  eV     1   --> A_1  L_1       
     e(  3 -  4) =      4.50719  eV     2   --> E    L_3       
     e(  5 -  5) =      6.10093  eV     1   --> A_1  L_1       
     e(  6 -  7) =      9.57106  eV     2   --> E    L_3       

 **************************************************************************

 **************************************************************************

                    xk=(   0.07005,   0.07005,   0.07005  )

     Band symmetry, C_3v (3m)   point group:

     e(  1 -  1) =     -5.26286  eV     1   --> A_1  L_1       
     e(  2 -  2) =     -1.11731  eV     1   --> A_1  L_1       
     e(  3 -  4) =      4.51032  eV     2   --> E    L_3       
     e(  5 -  5) =      6.10412  eV     1   --> A_1  L_1       
     e(  6 -  7) =      9.57198  eV     2   --> E    L_3       

 **************************************************************************

 **************************************************************************

                    xk=(   0.06973,   0.06973,   0.06973  )

     Band symmetry, C_3v (3m)   point group:

     e(  1 -  1) =     -5.27427  eV     1   --> A_1  L_1       
     e(  2 -  2) =     -1.09642  eV     1   --> A_1  L_1       
     e(  3 -  4) =      4.51351  eV     2   --> E    L_3       
     e(  5 -  5) =      6.10737  eV     1   --> A_1  L_1       
     e(  6 -  7) =      9.57288  eV     2   --> E    L_3       

 **************************************************************************

 **************************************************************************

                    xk=(   0.06941,   0.06941,   0.06941  )

     Band symmetry, C_3v (3m)   point group:

     e(  1 -  1) =     -5.28574  eV     1   --> A_1  L_1       
     e(  2 -  2) =     -1.07531  eV     1   --> A_1  L_1       
     e(  3 -  4) =      4.51675  eV     2   --> E    L_3       
     e(  5 -  5) =      6.11068  eV     1   --> A_1  L_1       
     e(  6 -  7) =      9.57378  eV     2   --> E    L_3       

 **************************************************************************

 **************************************************************************

                    xk=(   0.06909,   0.06909,   0.06909  )

     Band symmetry, C_3v (3m)   point group:

     e(  1 -  1) =     -5.29728  eV     1   --> A_1  L_1       
     e(  2 -  2) =     -1.05397  eV     1   --> A_1  L_1       
     e(  3 -  4) =      4.52004  eV     2   --> E    L_3       
     e(  5 -  5) =      6.11403  eV     1   --> A_1  L_1       
     e(  6 -  7) =      9.57466  eV     2   --> E    L_3       

 **************************************************************************

 **************************************************************************

                    xk=(   0.06877,   0.06877,   0.06877  )

     Band symmetry, C_3v (3m)   point group:

     e(  1 -  1) =     -5.30888  eV     1   --> A_1  L_1       
     e(  2 -  2) =     -1.03241  eV     1   --> A_1  L_1       
     e(  3 -  4) =      4.52339  eV     2   --> E    L_3       
     e(  5 -  5) =      6.11744  eV     1   --> A_1  L_1       
     e(  6 -  7) =      9.57552  eV     2   --> E    L_3       

 **************************************************************************

 **************************************************************************

                    xk=(   0.06845,   0.06845,   0.06845  )

     Band symmetry, C_3v (3m)   point group:

     e(  1 -  1) =     -5.32054  eV     1   --> A_1  L_1       
     e(  2 -  2) =     -1.01062  eV     1   --> A_1  L_1       
     e(  3 -  4) =      4.52679  eV     2   --> E    L_3       
     e(  5 -  5) =      6.12091  eV     1   --> A_1  L_1       
     e(  6 -  7) =      9.57637  eV     2   --> E    L_3       

 **************************************************************************

 **************************************************************************

                    xk=(   0.06813,   0.06813,   0.06813  )

     Band symmetry, C_3v (3m)   point group:

     e(  1 -  1) =     -5.33225  eV     1   --> A_1  L_1       
     e(  2 -  2) =     -0.98862  eV     1   --> A_1  L_1       
     e(  3 -  4) =      4.53025  eV     2   --> E    L_3       
     e(  5 -  5) =      6.12443  eV     1   --> A_1  L_1       
     e(  6 -  7) =      9.57721  eV     2   --> E    L_3       

 **************************************************************************

 **************************************************************************

                    xk=(   0.06780,   0.06780,   0.06780  )

     Band symmetry, C_3v (3m)   point group:

     e(  1 -  1) =     -5.34401  eV     1   --> A_1  L_1       
     e(  2 -  2) =     -0.96640  eV     1   --> A_1  L_1       
     e(  3 -  4) =      4.53376  eV     2   --> E    L_3       
     e(  5 -  5) =      6.12800  eV     1   --> A_1  L_1       
     e(  6 -  7) =      9.57802  eV     2   --> E    L_3       

 **************************************************************************

 **************************************************************************

                    xk=(   0.06748,   0.06748,   0.06748  )

     Band symmetry, C_3v (3m)   point group:

     e(  1 -  1) =     -5.35582  eV     1   --> A_1  L_1       
     e(  2 -  2) =     -0.94398  eV     1   --> A_1  L_1       
     e(  3 -  4) =      4.53733  eV     2   --> E    L_3       
     e(  5 -  5) =      6.13163  eV     1   --> A_1  L_1       
     e(  6 -  7) =      9.57881  eV     2   --> E    L_3       

 **************************************************************************

 **************************************************************************

                    xk=(   0.06716,   0.06716,   0.06716  )

     Band symmetry, C_3v (3m)   point group:

     e(  1 -  1) =     -5.36768  eV     1   --> A_1  L_1       
     e(  2 -  2) =     -0.92135  eV     1   --> A_1  L_1       
     e(  3 -  4) =      4.54095  eV     2   --> E    L_3       
     e(  5 -  5) =      6.13530  eV     1   --> A_1  L_1       
     e(  6 -  7) =      9.57957  eV     2   --> E    L_3       

 **************************************************************************

 **************************************************************************

                    xk=(   0.06684,   0.06684,   0.06684  )

     Band symmetry, C_3v (3m)   point group:

     e(  1 -  1) =     -5.37958  eV     1   --> A_1  L_1       
     e(  2 -  2) =     -0.89851  eV     1   --> A_1  L_1       
     e(  3 -  4) =      4.54462  eV     2   --> E    L_3       
     e(  5 -  5) =      6.13904  eV     1   --> A_1  L_1       
     e(  6 -  7) =      9.58031  eV     2   --> E    L_3       

 **************************************************************************

 **************************************************************************

                    xk=(   0.06652,   0.06652,   0.06652  )

     Band symmetry, C_3v (3m)   point group:

     e(  1 -  1) =     -5.39152  eV     1   --> A_1  L_1       
     e(  2 -  2) =     -0.87547  eV     1   --> A_1  L_1       
     e(  3 -  4) =      4.54835  eV     2   --> E    L_3       
     e(  5 -  5) =      6.14282  eV     1   --> A_1  L_1       
     e(  6 -  7) =      9.58103  eV     2   --> E    L_3       

 **************************************************************************

 **************************************************************************

                    xk=(   0.06620,   0.06620,   0.06620  )

     Band symmetry, C_3v (3m)   point group:

     e(  1 -  1) =     -5.40349  eV     1   --> A_1  L_1       
     e(  2 -  2) =     -0.85224  eV     1   --> A_1  L_1       
     e(  3 -  4) =      4.55213  eV     2   --> E    L_3       
     e(  5 -  5) =      6.14666  eV     1   --> A_1  L_1       
     e(  6 -  7) =      9.58172  eV     2   --> E    L_3       

 **************************************************************************

 **************************************************************************

                    xk=(   0.06588,   0.06588,   0.06588  )

     Band symmetry, C_3v (3m)   point group:

     e(  1 -  1) =     -5.41550  eV     1   --> A_1  L_1       
     e(  2 -  2) =     -0.82881  eV     1   --> A_1  L_1       
     e(  3 -  4) =      4.55596  eV     2   --> E    L_3       
     e(  5 -  5) =      6.15055  eV     1   --> A_1  L_1       
     e(  6 -  7) =      9.58238  eV     2   --> E    L_3       

 **************************************************************************

 **************************************************************************

                    xk=(   0.06555,   0.06555,   0.06555  )

     Band symmetry, C_3v (3m)   point group:

     e(  1 -  1) =     -5.42753  eV     1   --> A_1  L_1       
     e(  2 -  2) =     -0.80519  eV     1   --> A_1  L_1       
     e(  3 -  4) =      4.55984  eV     2   --> E    L_3       
     e(  5 -  5) =      6.15450  eV     1   --> A_1  L_1       
     e(  6 -  7) =      9.58301  eV     2   --> E    L_3       

 **************************************************************************

 **************************************************************************

                    xk=(   0.06523,   0.06523,   0.06523  )

     Band symmetry, C_3v (3m)   point group:

     e(  1 -  1) =     -5.43960  eV     1   --> A_1  L_1       
     e(  2 -  2) =     -0.78138  eV     1   --> A_1  L_1       
     e(  3 -  4) =      4.56378  eV     2   --> E    L_3       
     e(  5 -  5) =      6.15850  eV     1   --> A_1  L_1       
     e(  6 -  7) =      9.58361  eV     2   --> E    L_3       

 **************************************************************************

 **************************************************************************

                    xk=(   0.06491,   0.06491,   0.06491  )

     Band symmetry, C_3v (3m)   point group:

     e(  1 -  1) =     -5.45169  eV     1   --> A_1  L_1       
     e(  2 -  2) =     -0.75738  eV     1   --> A_1  L_1       
     e(  3 -  4) =      4.56777  eV     2   --> E    L_3       
     e(  5 -  5) =      6.16255  eV     1   --> A_1  L_1       
     e(  6 -  7) =      9.58417  eV     2   --> E    L_3       

 **************************************************************************

 **************************************************************************

                    xk=(   0.06459,   0.06459,   0.06459  )

     Band symmetry, C_3v (3m)   point group:

     e(  1 -  1) =     -5.46380  eV     1   --> A_1  L_1       
     e(  2 -  2) =     -0.73320  eV     1   --> A_1  L_1       
     e(  3 -  4) =      4.57182  eV     2   --> E    L_3       
     e(  5 -  5) =      6.16665  eV     1   --> A_1  L_1       
     e(  6 -  7) =      9.58469  eV     2   --> E    L_3       

 **************************************************************************

 **************************************************************************

                    xk=(   0.06427,   0.06427,   0.06427  )

     Band symmetry, C_3v (3m)   point group:

     e(  1 -  1) =     -5.47593  eV     1   --> A_1  L_1       
     e(  2 -  2) =     -0.70884  eV     1   --> A_1  L_1       
     e(  3 -  4) =      4.57592  eV     2   --> E    L_3       
     e(  5 -  5) =      6.17080  eV     1   --> A_1  L_1       
     e(  6 -  7) =      9.58518  eV     2   --> E    L_3       

 **************************************************************************

 **************************************************************************

                    xk=(   0.06395,   0.06395,   0.06395  )

     Band symmetry, C_3v (3m)   point group:

     e(  1 -  1) =     -5.48808  eV     1   --> A_1  L_1       
     e(  2 -  2) =     -0.68430  eV     1   --> A_1  L_1       
     e(  3 -  4) =      4.58007  eV     2   --> E    L_3       
     e(  5 -  5) =      6.17501  eV     1   --> A_1  L_1       
     e(  6 -  7) =      9.58562  eV     2   --> E    L_3       

 **************************************************************************

 **************************************************************************

                    xk=(   0.06363,   0.06363,   0.06363  )

     Band symmetry, C_3v (3m)   point group:

     e(  1 -  1) =     -5.50024  eV     1   --> A_1  L_1       
     e(  2 -  2) =     -0.65959  eV     1   --> A_1  L_1       
     e(  3 -  4) =      4.58427  eV     2   --> E    L_3       
     e(  5 -  5) =      6.17926  eV     1   --> A_1  L_1       
     e(  6 -  7) =      9.58603  eV     2   --> E    L_3       

 **************************************************************************

 **************************************************************************

                    xk=(   0.06331,   0.06331,   0.06331  )

     Band symmetry, C_3v (3m)   point group:

     e(  1 -  1) =     -5.51242  eV     1   --> A_1  L_1       
     e(  2 -  2) =     -0.63470  eV     1   --> A_1  L_1       
     e(  3 -  4) =      4.58853  eV     2   --> E    L_3       
     e(  5 -  5) =      6.18357  eV     1   --> A_1  L_1       
     e(  6 -  7) =      9.58639  eV     2   --> E    L_3       

 **************************************************************************

 **************************************************************************

                    xk=(   0.06298,   0.06298,   0.06298  )

     Band symmetry, C_3v (3m)   point group:

     e(  1 -  1) =     -5.52460  eV     1   --> A_1  L_1       
     e(  2 -  2) =     -0.60964  eV     1   --> A_1  L_1       
     e(  3 -  4) =      4.59284  eV     2   --> E    L_3       
     e(  5 -  5) =      6.18793  eV     1   --> A_1  L_1       
     e(  6 -  7) =      9.58670  eV     2   --> E    L_3       

 **************************************************************************

 **************************************************************************

                    xk=(   0.06266,   0.06266,   0.06266  )

     Band symmetry, C_3v (3m)   point group:

     e(  1 -  1) =     -5.53680  eV     1   --> A_1  L_1       
     e(  2 -  2) =     -0.58441  eV     1   --> A_1  L_1       
     e(  3 -  4) =      4.59720  eV     2   --> E    L_3       
     e(  5 -  5) =      6.19234  eV     1   --> A_1  L_1       
     e(  6 -  7) =      9.58697  eV     2   --> E    L_3       

 **************************************************************************

 **************************************************************************

                    xk=(   0.06234,   0.06234,   0.06234  )

     Band symmetry, C_3v (3m)   point group:

     e(  1 -  1) =     -5.54900  eV     1   --> A_1  L_1       
     e(  2 -  2) =     -0.55902  eV     1   --> A_1  L_1       
     e(  3 -  4) =      4.60161  eV     2   --> E    L_3       
     e(  5 -  5) =      6.19680  eV     1   --> A_1  L_1       
     e(  6 -  7) =      9.58718  eV     2   --> E    L_3       

 **************************************************************************

 **************************************************************************

                    xk=(   0.06202,   0.06202,   0.06202  )

     Band symmetry, C_3v (3m)   point group:

     e(  1 -  1) =     -5.56120  eV     1   --> A_1  L_1       
     e(  2 -  2) =     -0.53346  eV     1   --> A_1  L_1       
     e(  3 -  4) =      4.60607  eV     2   --> E    L_3       
     e(  5 -  5) =      6.20131  eV     1   --> A_1  L_1       
     e(  6 -  7) =      9.58735  eV     2   --> E    L_3       

 **************************************************************************

 **************************************************************************

                    xk=(   0.06170,   0.06170,   0.06170  )

     Band symmetry, C_3v (3m)   point group:

     e(  1 -  1) =     -5.57341  eV     1   --> A_1  L_1       
     e(  2 -  2) =     -0.50775  eV     1   --> A_1  L_1       
     e(  3 -  4) =      4.61060  eV     2   --> E    L_3       
     e(  5 -  5) =      6.20588  eV     1   --> A_1  L_1       
     e(  6 -  7) =      9.58747  eV     2   --> E    L_3       

 **************************************************************************

 **************************************************************************

                    xk=(   0.06138,   0.06138,   0.06138  )

     Band symmetry, C_3v (3m)   point group:

     e(  1 -  1) =     -5.58562  eV     1   --> A_1  L_1       
     e(  2 -  2) =     -0.48187  eV     1   --> A_1  L_1       
     e(  3 -  4) =      4.61516  eV     2   --> E    L_3       
     e(  5 -  5) =      6.21049  eV     1   --> A_1  L_1       
     e(  6 -  7) =      9.58752  eV     2   --> E    L_3       

 **************************************************************************

 **************************************************************************

                    xk=(   0.06106,   0.06106,   0.06106  )

     Band symmetry, C_3v (3m)   point group:

     e(  1 -  1) =     -5.59782  eV     1   --> A_1  L_1       
     e(  2 -  2) =     -0.45583  eV     1   --> A_1  L_1       
     e(  3 -  4) =      4.61978  eV     2   --> E    L_3       
     e(  5 -  5) =      6.21515  eV     1   --> A_1  L_1       
     e(  6 -  7) =      9.58752  eV     2   --> E    L_3       

 **************************************************************************

 **************************************************************************

                    xk=(   0.06073,   0.06073,   0.06073  )

     Band symmetry, C_3v (3m)   point group:

     e(  1 -  1) =     -5.61002  eV     1   --> A_1  L_1       
     e(  2 -  2) =     -0.42964  eV     1   --> A_1  L_1       
     e(  3 -  4) =      4.62446  eV     2   --> E    L_3       
     e(  5 -  5) =      6.21986  eV     1   --> A_1  L_1       
     e(  6 -  7) =      9.58746  eV     2   --> E    L_3       

 **************************************************************************

 **************************************************************************

                    xk=(   0.06041,   0.06041,   0.06041  )

     Band symmetry, C_3v (3m)   point group:

     e(  1 -  1) =     -5.62221  eV     1   --> A_1  L_1       
     e(  2 -  2) =     -0.40330  eV     1   --> A_1  L_1       
     e(  3 -  4) =      4.62918  eV     2   --> E    L_3       
     e(  5 -  5) =      6.22462  eV     1   --> A_1  L_1       
     e(  6 -  7) =      9.58733  eV     2   --> E    L_3       

 **************************************************************************

 **************************************************************************

                    xk=(   0.06009,   0.06009,   0.06009  )

     Band symmetry, C_3v (3m)   point group:

     e(  1 -  1) =     -5.63440  eV     1   --> A_1  L_1       
     e(  2 -  2) =     -0.37681  eV     1   --> A_1  L_1       
     e(  3 -  4) =      4.63396  eV     2   --> E    L_3       
     e(  5 -  5) =      6.22942  eV     1   --> A_1  L_1       
     e(  6 -  7) =      9.58715  eV     2   --> E    L_3       

 **************************************************************************

 **************************************************************************

                    xk=(   0.05977,   0.05977,   0.05977  )

     Band symmetry, C_3v (3m)   point group:

     e(  1 -  1) =     -5.64658  eV     1   --> A_1  L_1       
     e(  2 -  2) =     -0.35016  eV     1   --> A_1  L_1       
     e(  3 -  4) =      4.63878  eV     2   --> E    L_3       
     e(  5 -  5) =      6.23428  eV     1   --> A_1  L_1       
     e(  6 -  7) =      9.58689  eV     2   --> E    L_3       

 **************************************************************************

 **************************************************************************

                    xk=(   0.05945,   0.05945,   0.05945  )

     Band symmetry, C_3v (3m)   point group:

     e(  1 -  1) =     -5.65874  eV     1   --> A_1  L_1       
     e(  2 -  2) =     -0.32337  eV     1   --> A_1  L_1       
     e(  3 -  4) =      4.64366  eV     2   --> E    L_3       
     e(  5 -  5) =      6.23919  eV     1   --> A_1  L_1       
     e(  6 -  7) =      9.58657  eV     2   --> E    L_3       

 **************************************************************************

 **************************************************************************

                    xk=(   0.05913,   0.05913,   0.05913  )

     Band symmetry, C_3v (3m)   point group:

     e(  1 -  1) =     -5.67090  eV     1   --> A_1  L_1       
     e(  2 -  2) =     -0.29644  eV     1   --> A_1  L_1       
     e(  3 -  4) =      4.64858  eV     2   --> E    L_3       
     e(  5 -  5) =      6.24413  eV     1   --> A_1  L_1       
     e(  6 -  7) =      9.58617  eV     2   --> E    L_3       

 **************************************************************************

 **************************************************************************

                    xk=(   0.05881,   0.05881,   0.05881  )

     Band symmetry, C_3v (3m)   point group:

     e(  1 -  1) =     -5.68303  eV     1   --> A_1  L_1       
     e(  2 -  2) =     -0.26936  eV     1   --> A_1  L_1       
     e(  3 -  4) =      4.65356  eV     2   --> E    L_3       
     e(  5 -  5) =      6.24913  eV     1   --> A_1  L_1       
     e(  6 -  7) =      9.58570  eV     2   --> E    L_3       

 **************************************************************************

 **************************************************************************

                    xk=(   0.05849,   0.05849,   0.05849  )

     Band symmetry, C_3v (3m)   point group:

     e(  1 -  1) =     -5.69516  eV     1   --> A_1  L_1       
     e(  2 -  2) =     -0.24214  eV     1   --> A_1  L_1       
     e(  3 -  4) =      4.65859  eV     2   --> E    L_3       
     e(  5 -  5) =      6.25418  eV     1   --> A_1  L_1       
     e(  6 -  7) =      9.58517  eV     2   --> E    L_3       

 **************************************************************************

 **************************************************************************

                    xk=(   0.05816,   0.05816,   0.05816  )

     Band symmetry, C_3v (3m)   point group:

     e(  1 -  1) =     -5.70726  eV     1   --> A_1  L_1       
     e(  2 -  2) =     -0.21478  eV     1   --> A_1  L_1       
     e(  3 -  4) =      4.66367  eV     2   --> E    L_3       
     e(  5 -  5) =      6.25928  eV     1   --> A_1  L_1       
     e(  6 -  7) =      9.58456  eV     2   --> E    L_3       

 **************************************************************************

 **************************************************************************

                    xk=(   0.05784,   0.05784,   0.05784  )

     Band symmetry, C_3v (3m)   point group:

     e(  1 -  1) =     -5.71934  eV     1   --> A_1  L_1       
     e(  2 -  2) =     -0.18727  eV     1   --> A_1  L_1       
     e(  3 -  4) =      4.66880  eV     2   --> E    L_3       
     e(  5 -  5) =      6.26442  eV     1   --> A_1  L_1       
     e(  6 -  7) =      9.58387  eV     2   --> E    L_3       

 **************************************************************************

 **************************************************************************

                    xk=(   0.05752,   0.05752,   0.05752  )

     Band symmetry, C_3v (3m)   point group:

     e(  1 -  1) =     -5.73141  eV     1   --> A_1  L_1       
     e(  2 -  2) =     -0.15964  eV     1   --> A_1  L_1       
     e(  3 -  4) =      4.67398  eV     2   --> E    L_3       
     e(  5 -  5) =      6.26961  eV     1   --> A_1  L_1       
     e(  6 -  7) =      9.58309  eV     2   --> E    L_3       

 **************************************************************************

 **************************************************************************

                    xk=(   0.05720,   0.05720,   0.05720  )

     Band symmetry, C_3v (3m)   point group:

     e(  1 -  1) =     -5.74345  eV     1   --> A_1  L_1       
     e(  2 -  2) =     -0.13187  eV     1   --> A_1  L_1       
     e(  3 -  4) =      4.67921  eV     2   --> E    L_3       
     e(  5 -  5) =      6.27484  eV     1   --> A_1  L_1       
     e(  6 -  7) =      9.58224  eV     2   --> E    L_3       

 **************************************************************************

 **************************************************************************

                    xk=(   0.05688,   0.05688,   0.05688  )

     Band symmetry, C_3v (3m)   point group:

     e(  1 -  1) =     -5.75547  eV     1   --> A_1  L_1       
     e(  2 -  2) =     -0.10396  eV     1   --> A_1  L_1       
     e(  3 -  4) =      4.68449  eV     2   --> E    L_3       
     e(  5 -  5) =      6.28013  eV     1   --> A_1  L_1       
     e(  6 -  7) =      9.58131  eV     2   --> E    L_3       

 **************************************************************************

 **************************************************************************

                    xk=(   0.05656,   0.05656,   0.05656  )

     Band symmetry, C_3v (3m)   point group:

     e(  1 -  1) =     -5.76746  eV     1   --> A_1  L_1       
     e(  2 -  2) =     -0.07592  eV     1   --> A_1  L_1       
     e(  3 -  4) =      4.68982  eV     2   --> E    L_3       
     e(  5 -  5) =      6.28545  eV     1   --> A_1  L_1       
     e(  6 -  7) =      9.58028  eV     2   --> E    L_3       

 **************************************************************************

 **************************************************************************

                    xk=(   0.05624,   0.05624,   0.05624  )

     Band symmetry, C_3v (3m)   point group:

     e(  1 -  1) =     -5.77943  eV     1   --> A_1  L_1       
     e(  2 -  2) =     -0.04775  eV     1   --> A_1  L_1       
     e(  3 -  4) =      4.69519  eV     2   --> E    L_3       
     e(  5 -  5) =      6.29082  eV     1   --> A_1  L_1       
     e(  6 -  7) =      9.57917  eV     2   --> E    L_3       

 **************************************************************************

 **************************************************************************

                    xk=(   0.05591,   0.05591,   0.05591  )

     Band symmetry, C_3v (3m)   point group:

     e(  1 -  1) =     -5.79137  eV     1   --> A_1  L_1       
     e(  2 -  2) =     -0.01946  eV     1   --> A_1  L_1       
     e(  3 -  4) =      4.70062  eV     2   --> E    L_3       
     e(  5 -  5) =      6.29624  eV     1   --> A_1  L_1       
     e(  6 -  7) =      9.57797  eV     2   --> E    L_3       

 **************************************************************************

 **************************************************************************

                    xk=(   0.05559,   0.05559,   0.05559  )

     Band symmetry, C_3v (3m)   point group:

     e(  1 -  1) =     -5.80329  eV     1   --> A_1  L_1       
     e(  2 -  2) =      0.00896  eV     1   --> A_1  L_1       
     e(  3 -  4) =      4.70609  eV     2   --> E    L_3       
     e(  5 -  5) =      6.30170  eV     1   --> A_1  L_1       
     e(  6 -  7) =      9.57668  eV     2   --> E    L_3       

 **************************************************************************

 **************************************************************************

                    xk=(   0.05527,   0.05527,   0.05527  )

     Band symmetry, C_3v (3m)   point group:

     e(  1 -  1) =     -5.81517  eV     1   --> A_1  L_1       
     e(  2 -  2) =      0.03752  eV     1   --> A_1  L_1       
     e(  3 -  4) =      4.71162  eV     2   --> E    L_3       
     e(  5 -  5) =      6.30720  eV     1   --> A_1  L_1       
     e(  6 -  7) =      9.57529  eV     2   --> E    L_3       

 **************************************************************************

 **************************************************************************

                    xk=(   0.05495,   0.05495,   0.05495  )

     Band symmetry, C_3v (3m)   point group:

     e(  1 -  1) =     -5.82702  eV     1   --> A_1  L_1       
     e(  2 -  2) =      0.06619  eV     1   --> A_1  L_1       
     e(  3 -  4) =      4.71719  eV     2   --> E    L_3       
     e(  5 -  5) =      6.31275  eV     1   --> A_1  L_1       
     e(  6 -  7) =      9.57381  eV     2   --> E    L_3       

 **************************************************************************

 **************************************************************************

                    xk=(   0.05463,   0.05463,   0.05463  )

     Band symmetry, C_3v (3m)   point group:

     e(  1 -  1) =     -5.83884  eV     1   --> A_1  L_1       
     e(  2 -  2) =      0.09499  eV     1   --> A_1  L_1       
     e(  3 -  4) =      4.72282  eV     2   --> E    L_3       
     e(  5 -  5) =      6.31834  eV     1   --> A_1  L_1       
     e(  6 -  7) =      9.57223  eV     2   --> E    L_3       

 **************************************************************************

 **************************************************************************

                    xk=(   0.05431,   0.05431,   0.05431  )

     Band symmetry, C_3v (3m)   point group:

     e(  1 -  1) =     -5.85062  eV     1   --> A_1  L_1       
     e(  2 -  2) =      0.12391  eV     1   --> A_1  L_1       
     e(  3 -  4) =      4.72849  eV     2   --> E    L_3       
     e(  5 -  5) =      6.32397  eV     1   --> A_1  L_1       
     e(  6 -  7) =      9.57055  eV     2   --> E    L_3       

 **************************************************************************

 **************************************************************************

                    xk=(   0.05399,   0.05399,   0.05399  )

     Band symmetry, C_3v (3m)   point group:

     e(  1 -  1) =     -5.86237  eV     1   --> A_1  L_1       
     e(  2 -  2) =      0.15295  eV     1   --> A_1  L_1       
     e(  3 -  4) =      4.73420  eV     2   --> E    L_3       
     e(  5 -  5) =      6.32965  eV     1   --> A_1  L_1       
     e(  6 -  7) =      9.56876  eV     2   --> E    L_3       

 **************************************************************************

 **************************************************************************

                    xk=(   0.05366,   0.05366,   0.05366  )

     Band symmetry, C_3v (3m)   point group:

     e(  1 -  1) =     -5.87409  eV     1   --> A_1  L_1       
     e(  2 -  2) =      0.18211  eV     1   --> A_1  L_1       
     e(  3 -  4) =      4.73997  eV     2   --> E    L_3       
     e(  5 -  5) =      6.33537  eV     1   --> A_1  L_1       
     e(  6 -  7) =      9.56688  eV     2   --> E    L_3       

 **************************************************************************

 **************************************************************************

                    xk=(   0.05334,   0.05334,   0.05334  )

     Band symmetry, C_3v (3m)   point group:

     e(  1 -  1) =     -5.88576  eV     1   --> A_1  L_1       
     e(  2 -  2) =      0.21139  eV     1   --> A_1  L_1       
     e(  3 -  4) =      4.74579  eV     2   --> E    L_3       
     e(  5 -  5) =      6.34112  eV     1   --> A_1  L_1       
     e(  6 -  7) =      9.56489  eV     2   --> E    L_3       

 **************************************************************************

 **************************************************************************

                    xk=(   0.05302,   0.05302,   0.05302  )

     Band symmetry, C_3v (3m)   point group:

     e(  1 -  1) =     -5.89741  eV     1   --> A_1  L_1       
     e(  2 -  2) =      0.24078  eV     1   --> A_1  L_1       
     e(  3 -  4) =      4.75165  eV     2   --> E    L_3       
     e(  5 -  5) =      6.34692  eV     1   --> A_1  L_1       
     e(  6 -  7) =      9.56279  eV     2   --> E    L_3       

 **************************************************************************

 **************************************************************************

                    xk=(   0.05270,   0.05270,   0.05270  )

     Band symmetry, C_3v (3m)   point group:

     e(  1 -  1) =     -5.90901  eV     1   --> A_1  L_1       
     e(  2 -  2) =      0.27029  eV     1   --> A_1  L_1       
     e(  3 -  4) =      4.75756  eV     2   --> E    L_3       
     e(  5 -  5) =      6.35276  eV     1   --> A_1  L_1       
     e(  6 -  7) =      9.56058  eV     2   --> E    L_3       

 **************************************************************************

 **************************************************************************

                    xk=(   0.05238,   0.05238,   0.05238  )

     Band symmetry, C_3v (3m)   point group:

     e(  1 -  1) =     -5.92057  eV     1   --> A_1  L_1       
     e(  2 -  2) =      0.29991  eV     1   --> A_1  L_1       
     e(  3 -  4) =      4.76351  eV     2   --> E    L_3       
     e(  5 -  5) =      6.35864  eV     1   --> A_1  L_1       
     e(  6 -  7) =      9.55826  eV     2   --> E    L_3       

 **************************************************************************

 **************************************************************************

                    xk=(   0.05206,   0.05206,   0.05206  )

     Band symmetry, C_3v (3m)   point group:

     e(  1 -  1) =     -5.93209  eV     1   --> A_1  L_1       
     e(  2 -  2) =      0.32965  eV     1   --> A_1  L_1       
     e(  3 -  4) =      4.76951  eV     2   --> E    L_3       
     e(  5 -  5) =      6.36456  eV     1   --> A_1  L_1       
     e(  6 -  7) =      9.55583  eV     2   --> E    L_3       

 **************************************************************************

 **************************************************************************

                    xk=(   0.05174,   0.05174,   0.05174  )

     Band symmetry, C_3v (3m)   point group:

     e(  1 -  1) =     -5.94357  eV     1   --> A_1  L_1       
     e(  2 -  2) =      0.35950  eV     1   --> A_1  L_1       
     e(  3 -  4) =      4.77556  eV     2   --> E    L_3       
     e(  5 -  5) =      6.37052  eV     1   --> A_1  L_1       
     e(  6 -  7) =      9.55329  eV     2   --> E    L_3       

 **************************************************************************

 **************************************************************************

                    xk=(   0.05142,   0.05142,   0.05142  )

     Band symmetry, C_3v (3m)   point group:

     e(  1 -  1) =     -5.95501  eV     1   --> A_1  L_1       
     e(  2 -  2) =      0.38946  eV     1   --> A_1  L_1       
     e(  3 -  4) =      4.78165  eV     2   --> E    L_3       
     e(  5 -  5) =      6.37651  eV     1   --> A_1  L_1       
     e(  6 -  7) =      9.55063  eV     2   --> E    L_3       

 **************************************************************************

 **************************************************************************

                    xk=(   0.05109,   0.05109,   0.05109  )

     Band symmetry, C_3v (3m)   point group:

     e(  1 -  1) =     -5.96640  eV     1   --> A_1  L_1       
     e(  2 -  2) =      0.41952  eV     1   --> A_1  L_1       
     e(  3 -  4) =      4.78780  eV     2   --> E    L_3       
     e(  5 -  5) =      6.38254  eV     1   --> A_1  L_1       
     e(  6 -  7) =      9.54785  eV     2   --> E    L_3       

 **************************************************************************

 **************************************************************************

                    xk=(   0.05077,   0.05077,   0.05077  )

     Band symmetry, C_3v (3m)   point group:

     e(  1 -  1) =     -5.97775  eV     1   --> A_1  L_1       
     e(  2 -  2) =      0.44970  eV     1   --> A_1  L_1       
     e(  3 -  4) =      4.79398  eV     2   --> E    L_3       
     e(  5 -  5) =      6.38861  eV     1   --> A_1  L_1       
     e(  6 -  7) =      9.54496  eV     2   --> E    L_3       

 **************************************************************************

 **************************************************************************

                    xk=(   0.05045,   0.05045,   0.05045  )

     Band symmetry, C_3v (3m)   point group:

     e(  1 -  1) =     -5.98905  eV     1   --> A_1  L_1       
     e(  2 -  2) =      0.47998  eV     1   --> A_1  L_1       
     e(  3 -  4) =      4.80021  eV     2   --> E    L_3       
     e(  5 -  5) =      6.39472  eV     1   --> A_1  L_1       
     e(  6 -  7) =      9.54194  eV     2   --> E    L_3       

 **************************************************************************

 **************************************************************************

                    xk=(   0.05013,   0.05013,   0.05013  )

     Band symmetry, C_3v (3m)   point group:

     e(  1 -  1) =     -6.00031  eV     1   --> A_1  L_1       
     e(  2 -  2) =      0.51037  eV     1   --> A_1  L_1       
     e(  3 -  4) =      4.80649  eV     2   --> E    L_3       
     e(  5 -  5) =      6.40086  eV     1   --> A_1  L_1       
     e(  6 -  7) =      9.53881  eV     2   --> E    L_3       

 **************************************************************************

 **************************************************************************

                    xk=(   0.04981,   0.04981,   0.04981  )

     Band symmetry, C_3v (3m)   point group:

     e(  1 -  1) =     -6.01153  eV     1   --> A_1  L_1       
     e(  2 -  2) =      0.54087  eV     1   --> A_1  L_1       
     e(  3 -  4) =      4.81281  eV     2   --> E    L_3       
     e(  5 -  5) =      6.40704  eV     1   --> A_1  L_1       
     e(  6 -  7) =      9.53555  eV     2   --> E    L_3       

 **************************************************************************

 **************************************************************************

                    xk=(   0.04949,   0.04949,   0.04949  )

     Band symmetry, C_3v (3m)   point group:

     e(  1 -  1) =     -6.02269  eV     1   --> A_1  L_1       
     e(  2 -  2) =      0.57146  eV     1   --> A_1  L_1       
     e(  3 -  4) =      4.81917  eV     2   --> E    L_3       
     e(  5 -  5) =      6.41325  eV     1   --> A_1  L_1       
     e(  6 -  7) =      9.53216  eV     2   --> E    L_3       

 **************************************************************************

 **************************************************************************

                    xk=(   0.04917,   0.04917,   0.04917  )

     Band symmetry, C_3v (3m)   point group:

     e(  1 -  1) =     -6.03381  eV     1   --> A_1  L_1       
     e(  2 -  2) =      0.60217  eV     1   --> A_1  L_1       
     e(  3 -  4) =      4.82557  eV     2   --> E    L_3       
     e(  5 -  5) =      6.41949  eV     1   --> A_1  L_1       
     e(  6 -  7) =      9.52864  eV     2   --> E    L_3       

 **************************************************************************

 **************************************************************************

                    xk=(   0.04884,   0.04884,   0.04884  )

     Band symmetry, C_3v (3m)   point group:

     e(  1 -  1) =     -6.04487  eV     1   --> A_1  L_1       
     e(  2 -  2) =      0.63297  eV     1   --> A_1  L_1       
     e(  3 -  4) =      4.83203  eV     2   --> E    L_3       
     e(  5 -  5) =      6.42577  eV     1   --> A_1  L_1       
     e(  6 -  7) =      9.52500  eV     2   --> E    L_3       

 **************************************************************************

 **************************************************************************

                    xk=(   0.04852,   0.04852,   0.04852  )

     Band symmetry, C_3v (3m)   point group:

     e(  1 -  1) =     -6.05589  eV     1   --> A_1  L_1       
     e(  2 -  2) =      0.66387  eV     1   --> A_1  L_1       
     e(  3 -  4) =      4.83852  eV     2   --> E    L_3       
     e(  5 -  5) =      6.43208  eV     1   --> A_1  L_1       
     e(  6 -  7) =      9.52124  eV     2   --> E    L_3       

 **************************************************************************

 **************************************************************************

                    xk=(   0.04820,   0.04820,   0.04820  )

     Band symmetry, C_3v (3m)   point group:

     e(  1 -  1) =     -6.06686  eV     1   --> A_1  L_1       
     e(  2 -  2) =      0.69487  eV     1   --> A_1  L_1       
     e(  3 -  4) =      4.84506  eV     2   --> E    L_3       
     e(  5 -  5) =      6.43842  eV     1   --> A_1  L_1       
     e(  6 -  7) =      9.51735  eV     2   --> E    L_3       

 **************************************************************************

 **************************************************************************

                    xk=(   0.04788,   0.04788,   0.04788  )

     Band symmetry, C_3v (3m)   point group:

     e(  1 -  1) =     -6.07777  eV     1   --> A_1  L_1       
     e(  2 -  2) =      0.72598  eV     1   --> A_1  L_1       
     e(  3 -  4) =      4.85164  eV     2   --> E    L_3       
     e(  5 -  5) =      6.44479  eV     1   --> A_1  L_1       
     e(  6 -  7) =      9.51332  eV     2   --> E    L_3       

 **************************************************************************

 **************************************************************************

                    xk=(   0.04756,   0.04756,   0.04756  )

     Band symmetry, C_3v (3m)   point group:

     e(  1 -  1) =     -6.08864  eV     1   --> A_1  L_1       
     e(  2 -  2) =      0.75717  eV     1   --> A_1  L_1       
     e(  3 -  4) =      4.85827  eV     2   --> E    L_3       
     e(  5 -  5) =      6.45119  eV     1   --> A_1  L_1       
     e(  6 -  7) =      9.50917  eV     2   --> E    L_3       

 **************************************************************************

 **************************************************************************

                    xk=(   0.04724,   0.04724,   0.04724  )

     Band symmetry, C_3v (3m)   point group:

     e(  1 -  1) =     -6.09945  eV     1   --> A_1  L_1       
     e(  2 -  2) =      0.78847  eV     1   --> A_1  L_1       
     e(  3 -  4) =      4.86493  eV     2   --> E    L_3       
     e(  5 -  5) =      6.45762  eV     1   --> A_1  L_1       
     e(  6 -  7) =      9.50489  eV     2   --> E    L_3       

 **************************************************************************

 **************************************************************************

                    xk=(   0.04692,   0.04692,   0.04692  )

     Band symmetry, C_3v (3m)   point group:

     e(  1 -  1) =     -6.11020  eV     1   --> A_1  L_1       
     e(  2 -  2) =      0.81986  eV     1   --> A_1  L_1       
     e(  3 -  4) =      4.87165  eV     2   --> E    L_3       
     e(  5 -  5) =      6.46408  eV     1   --> A_1  L_1       
     e(  6 -  7) =      9.50048  eV     2   --> E    L_3       

 **************************************************************************

 **************************************************************************

                    xk=(   0.04660,   0.04660,   0.04660  )

     Band symmetry, C_3v (3m)   point group:

     e(  1 -  1) =     -6.12091  eV     1   --> A_1  L_1       
     e(  2 -  2) =      0.85135  eV     1   --> A_1  L_1       
     e(  3 -  4) =      4.87840  eV     2   --> E    L_3       
     e(  5 -  5) =      6.47057  eV     1   --> A_1  L_1       
     e(  6 -  7) =      9.49594  eV     2   --> E    L_3       

 **************************************************************************

 **************************************************************************

                    xk=(   0.04627,   0.04627,   0.04627  )

     Band symmetry, C_3v (3m)   point group:

     e(  1 -  1) =     -6.13156  eV     1   --> A_1  L_1       
     e(  2 -  2) =      0.88293  eV     1   --> A_1  L_1       
     e(  3 -  4) =      4.88519  eV     2   --> E    L_3       
     e(  5 -  5) =      6.47708  eV     1   --> A_1  L_1       
     e(  6 -  7) =      9.49126  eV     2   --> E    L_3       

 **************************************************************************

 **************************************************************************

                    xk=(   0.04595,   0.04595,   0.04595  )

     Band symmetry, C_3v (3m)   point group:

     e(  1 -  1) =     -6.14215  eV     1   --> A_1  L_1       
     e(  2 -  2) =      0.91460  eV     1   --> A_1  L_1       
     e(  3 -  4) =      4.89202  eV     2   --> E    L_3       
     e(  5 -  5) =      6.48362  eV     1   --> A_1  L_1       
     e(  6 -  7) =      9.48644  eV     2   --> E    L_3       

 **************************************************************************

 **************************************************************************

                    xk=(   0.04563,   0.04563,   0.04563  )

     Band symmetry, C_3v (3m)   point group:

     e(  1 -  1) =     -6.15269  eV     1   --> A_1  L_1       
     e(  2 -  2) =      0.94637  eV     1   --> A_1  L_1       
     e(  3 -  4) =      4.89889  eV     2   --> E    L_3       
[...]

 **************************************************************************

 **************************************************************************

                    xk=(   0.15623,   0.00000,   0.00000  )

     Band symmetry, C_2v (mm2)  point group:

     e(  1 -  1) =     -3.88294  eV     1   --> A_1  D_1  S_1  
     e(  2 -  2) =     -2.19583  eV     1   --> A_1  D_1  S_1  
     e(  3 -  4) =      2.81529  eV     2   --> B_1  D_3  S_3  
     e(  3 -  4) =      2.81529  eV     2   --> B_2  D_4  S_4  
     e(  5 -  5) =      6.36422  eV     1   --> A_1  D_1  S_1  
     e(  6 -  6) =      6.83082  eV     1   --> A_1  D_1  S_1  
     e(  7 -  7) =     15.00424  eV     1   -->   ?

 **************************************************************************

 **************************************************************************

                    xk=(   0.15702,   0.00000,   0.00000  )

     Band symmetry, C_2v (mm2)  point group:

     e(  1 -  1) =     -3.85334  eV     1   --> A_1  D_1  S_1  
     e(  2 -  2) =     -2.23086  eV     1   --> A_1  D_1  S_1  
     e(  3 -  4) =      2.81104  eV     2   --> B_1  D_3  S_3  
     e(  3 -  4) =      2.81104  eV     2   --> B_2  D_4  S_4  
     e(  5 -  5) =      6.36766  eV     1   --> A_1  D_1  S_1  
     e(  6 -  6) =      6.81630  eV     1   --> A_1  D_1  S_1  
     e(  7 -  7) =     15.03270  eV     1   -->   ?

 **************************************************************************

 **************************************************************************

                    xk=(   0.15780,   0.00000,   0.00000  )

     Band symmetry, C_2v (mm2)  point group:

     e(  1 -  1) =     -3.82361  eV     1   --> A_1  D_1  S_1  
     e(  2 -  2) =     -2.26581  eV     1   --> A_1  D_1  S_1  
     e(  3 -  4) =      2.80696  eV     2   --> B_1  D_3  S_3  
     e(  3 -  4) =      2.80696  eV     2   --> B_2  D_4  S_4  
     e(  5 -  5) =      6.37131  eV     1   --> A_1  D_1  S_1  
     e(  6 -  6) =      6.80201  eV     1   --> A_1  D_1  S_1  
     e(  7 -  7) =     15.06047  eV     1   -->   ?

 **************************************************************************

 **************************************************************************

                    xk=(   0.15859,   0.00000,   0.00000  )

     Band symmetry, C_2v (mm2)  point group:

     e(  1 -  1) =     -3.79376  eV     1   --> A_1  D_1  S_1  
     e(  2 -  2) =     -2.30067  eV     1   --> A_1  D_1  S_1  
     e(  3 -  4) =      2.80305  eV     2   --> B_1  D_3  S_3  
     e(  3 -  4) =      2.80305  eV     2   --> B_2  D_4  S_4  
     e(  5 -  5) =      6.37518  eV     1   --> A_1  D_1  S_1  
     e(  6 -  6) =      6.78792  eV     1   --> A_1  D_1  S_1  
     e(  7 -  7) =     15.08751  eV     1   -->   ?

 **************************************************************************

 **************************************************************************

                    xk=(   0.15938,   0.00000,   0.00000  )

     Band symmetry, C_2v (mm2)  point group:

     e(  1 -  1) =     -3.76380  eV     1   --> A_1  D_1  S_1  
     e(  2 -  2) =     -2.33543  eV     1   --> A_1  D_1  S_1  
     e(  3 -  4) =      2.79930  eV     2   --> B_1  D_3  S_3  
     e(  3 -  4) =      2.79930  eV     2   --> B_2  D_4  S_4  
     e(  5 -  5) =      6.37927  eV     1   --> A_1  D_1  S_1  
     e(  6 -  6) =      6.77405  eV     1   --> A_1  D_1  S_1  
     e(  7 -  7) =     15.11380  eV     1   -->   ?

 **************************************************************************

 **************************************************************************

                    xk=(   0.16017,   0.00000,   0.00000  )

     Band symmetry, C_2v (mm2)  point group:

     e(  1 -  1) =     -3.73372  eV     1   --> A_1  D_1  S_1  
     e(  2 -  2) =     -2.37010  eV     1   --> A_1  D_1  S_1  
     e(  3 -  4) =      2.79572  eV     2   --> B_1  D_3  S_3  
     e(  3 -  4) =      2.79572  eV     2   --> B_2  D_4  S_4  
     e(  5 -  5) =      6.38356  eV     1   --> A_1  D_1  S_1  
     e(  6 -  6) =      6.76039  eV     1   --> A_1  D_1  S_1  
     e(  7 -  7) =     15.13930  eV     1   -->   ?

 **************************************************************************

 **************************************************************************

                    xk=(   0.16096,   0.00000,   0.00000  )

     Band symmetry, C_2v (mm2)  point group:

     e(  1 -  1) =     -3.70351  eV     1   --> A_1  D_1  S_1  
     e(  2 -  2) =     -2.40467  eV     1   --> A_1  D_1  S_1  
     e(  3 -  4) =      2.79230  eV     2   --> B_1  D_3  S_3  
     e(  3 -  4) =      2.79230  eV     2   --> B_2  D_4  S_4  
     e(  5 -  5) =      6.38808  eV     1   --> A_1  D_1  S_1  
     e(  6 -  6) =      6.74695  eV     1   --> A_1  D_1  S_1  
     e(  7 -  7) =     15.16396  eV     1   -->   ?

 **************************************************************************

 **************************************************************************

                    xk=(   0.16175,   0.00000,   0.00000  )

     Band symmetry, C_2v (mm2)  point group:

     e(  1 -  1) =     -3.67319  eV     1   --> A_1  D_1  S_1  
     e(  2 -  2) =     -2.43915  eV     1   --> A_1  D_1  S_1  
     e(  3 -  4) =      2.78905  eV     2   --> B_1  D_3  S_3  
     e(  3 -  4) =      2.78905  eV     2   --> B_2  D_4  S_4  
     e(  5 -  5) =      6.39281  eV     1   --> A_1  D_1  S_1  
     e(  6 -  6) =      6.73373  eV     1   --> A_1  D_1  S_1  
     e(  7 -  7) =     15.18776  eV     1   -->   ?

 **************************************************************************

 **************************************************************************

                    xk=(   0.16254,   0.00000,   0.00000  )

     Band symmetry, C_2v (mm2)  point group:

     e(  1 -  1) =     -3.64276  eV     1   --> A_1  D_1  S_1  
     e(  2 -  2) =     -2.47353  eV     1   --> A_1  D_1  S_1  
     e(  3 -  4) =      2.78597  eV     2   --> B_1  D_3  S_3  
     e(  3 -  4) =      2.78597  eV     2   --> B_2  D_4  S_4  
     e(  5 -  5) =      6.39775  eV     1   --> A_1  D_1  S_1  
     e(  6 -  6) =      6.72072  eV     1   --> A_1  D_1  S_1  
     e(  7 -  7) =     15.21066  eV     1   -->   ?

 **************************************************************************

 **************************************************************************

                    xk=(   0.16333,   0.00000,   0.00000  )

     Band symmetry, C_2v (mm2)  point group:

     e(  1 -  1) =     -3.61220  eV     1   --> A_1  D_1  S_1  
     e(  2 -  2) =     -2.50782  eV     1   --> A_1  D_1  S_1  
     e(  3 -  4) =      2.78305  eV     2   --> B_1  D_3  S_3  
     e(  3 -  4) =      2.78305  eV     2   --> B_2  D_4  S_4  
     e(  5 -  5) =      6.40291  eV     1   --> A_1  D_1  S_1  
     e(  6 -  6) =      6.70793  eV     1   --> A_1  D_1  S_1  
     e(  7 -  7) =     15.23261  eV     1   -->   ?

 **************************************************************************

 **************************************************************************

                    xk=(   0.16412,   0.00000,   0.00000  )

     Band symmetry, C_2v (mm2)  point group:

     e(  1 -  1) =     -3.58153  eV     1   --> A_1  D_1  S_1  
     e(  2 -  2) =     -2.54201  eV     1   --> A_1  D_1  S_1  
     e(  3 -  4) =      2.78030  eV     2   --> B_1  D_3  S_3  
     e(  3 -  4) =      2.78030  eV     2   --> B_2  D_4  S_4  
     e(  5 -  5) =      6.40829  eV     1   --> A_1  D_1  S_1  
     e(  6 -  6) =      6.69536  eV     1   --> A_1  D_1  S_1  
     e(  7 -  7) =     15.25357  eV     1   -->   ?

 **************************************************************************

 **************************************************************************

                    xk=(   0.16491,   0.00000,   0.00000  )

     Band symmetry, C_2v (mm2)  point group:

     e(  1 -  1) =     -3.55075  eV     1   --> A_1  D_1  S_1  
     e(  2 -  2) =     -2.57611  eV     1   --> A_1  D_1  S_1  
     e(  3 -  4) =      2.77771  eV     2   --> B_1  D_3  S_3  
     e(  3 -  4) =      2.77771  eV     2   --> B_2  D_4  S_4  
     e(  5 -  5) =      6.41388  eV     1   --> A_1  D_1  S_1  
     e(  6 -  6) =      6.68300  eV     1   --> A_1  D_1  S_1  
     e(  7 -  7) =     15.27352  eV     1   -->   ?

 **************************************************************************

 **************************************************************************

                    xk=(   0.16569,   0.00000,   0.00000  )

     Band symmetry, C_2v (mm2)  point group:

     e(  1 -  1) =     -3.51985  eV     1   --> A_1  D_1  S_1  
     e(  2 -  2) =     -2.61010  eV     1   --> A_1  D_1  S_1  
     e(  3 -  4) =      2.77530  eV     2   --> B_1  D_3  S_3  
     e(  3 -  4) =      2.77530  eV     2   --> B_2  D_4  S_4  
     e(  5 -  5) =      6.41969  eV     1   --> A_1  D_1  S_1  
     e(  6 -  6) =      6.67086  eV     1   --> A_1  D_1  S_1  
     e(  7 -  7) =     15.29240  eV     1   -->   ?

 **************************************************************************

 **************************************************************************

                    xk=(   0.16648,   0.00000,   0.00000  )

     Band symmetry, C_2v (mm2)  point group:

     e(  1 -  1) =     -3.48883  eV     1   --> A_1  D_1  S_1  
     e(  2 -  2) =     -2.64400  eV     1   --> A_1  D_1  S_1  
     e(  3 -  4) =      2.77305  eV     2   --> B_1  D_3  S_3  
     e(  3 -  4) =      2.77305  eV     2   --> B_2  D_4  S_4  
     e(  5 -  5) =      6.42572  eV     1   --> A_1  D_1  S_1  
     e(  6 -  6) =      6.65894  eV     1   --> A_1  D_1  S_1  
     e(  7 -  7) =     15.31019  eV     1   -->   ?

 **************************************************************************

 **************************************************************************

                    xk=(   0.16727,   0.00000,   0.00000  )

     Band symmetry, C_2v (mm2)  point group:

     e(  1 -  1) =     -3.45770  eV     1   --> A_1  D_1  S_1  
     e(  2 -  2) =     -2.67780  eV     1   --> A_1  D_1  S_1  
     e(  3 -  4) =      2.77096  eV     2   --> B_1  D_3  S_3  
     e(  3 -  4) =      2.77096  eV     2   --> B_2  D_4  S_4  
     e(  5 -  5) =      6.43196  eV     1   --> A_1  D_1  S_1  
     e(  6 -  6) =      6.64723  eV     1   --> A_1  D_1  S_1  
     e(  7 -  7) =     15.32683  eV     1   -->   ?

 **************************************************************************

 **************************************************************************

                    xk=(   0.16806,   0.00000,   0.00000  )

     Band symmetry, C_2v (mm2)  point group:

     e(  1 -  1) =     -3.42646  eV     1   --> A_1  D_1  S_1  
     e(  2 -  2) =     -2.71150  eV     1   --> A_1  D_1  S_1  
     e(  3 -  4) =      2.76904  eV     2   --> B_1  D_3  S_3  
     e(  3 -  4) =      2.76904  eV     2   --> B_2  D_4  S_4  
     e(  5 -  5) =      6.43842  eV     1   --> A_1  D_1  S_1  
     e(  6 -  6) =      6.63575  eV     1   --> A_1  D_1  S_1  
     e(  7 -  7) =     15.34231  eV     1   -->   ?

 **************************************************************************

 **************************************************************************

                    xk=(   0.16885,   0.00000,   0.00000  )

     Band symmetry, C_2v (mm2)  point group:

     e(  1 -  1) =     -3.39510  eV     1   --> A_1  D_1  S_1  
     e(  2 -  2) =     -2.74510  eV     1   --> A_1  D_1  S_1  
     e(  3 -  4) =      2.76729  eV     2   --> B_1  D_3  S_3  
     e(  3 -  4) =      2.76729  eV     2   --> B_2  D_4  S_4  
     e(  5 -  5) =      6.44510  eV     1   --> A_1  D_1  S_1  
     e(  6 -  6) =      6.62448  eV     1   --> A_1  D_1  S_1  
     e(  7 -  7) =     15.35657  eV     1   -->   ?

 **************************************************************************

 **************************************************************************

                    xk=(   0.16964,   0.00000,   0.00000  )

     Band symmetry, C_2v (mm2)  point group:

     e(  1 -  1) =     -3.36363  eV     1   --> A_1  D_1  S_1  
     e(  2 -  2) =     -2.77860  eV     1   --> A_1  D_1  S_1  
     e(  3 -  4) =      2.76571  eV     2   --> B_1  D_3  S_3  
     e(  3 -  4) =      2.76571  eV     2   --> B_2  D_4  S_4  
     e(  5 -  5) =      6.45199  eV     1   --> A_1  D_1  S_1  
     e(  6 -  6) =      6.61343  eV     1   --> A_1  D_1  S_1  
     e(  7 -  7) =     15.36959  eV     1   -->   ?

 **************************************************************************

 **************************************************************************

                    xk=(   0.17043,   0.00000,   0.00000  )

     Band symmetry, C_2v (mm2)  point group:

     e(  1 -  1) =     -3.33205  eV     1   --> A_1  D_1  S_1  
     e(  2 -  2) =     -2.81199  eV     1   --> A_1  D_1  S_1  
     e(  3 -  4) =      2.76429  eV     2   --> B_1  D_3  S_3  
     e(  3 -  4) =      2.76429  eV     2   --> B_2  D_4  S_4  
     e(  5 -  5) =      6.45911  eV     1   --> A_1  D_1  S_1  
     e(  6 -  6) =      6.60260  eV     1   --> A_1  D_1  S_1  
     e(  7 -  7) =     15.38133  eV     1   -->   ?

 **************************************************************************

 **************************************************************************

                    xk=(   0.17122,   0.00000,   0.00000  )

     Band symmetry, C_2v (mm2)  point group:

     e(  1 -  1) =     -3.30036  eV     1   --> A_1  D_1  S_1  
     e(  2 -  2) =     -2.84529  eV     1   --> A_1  D_1  S_1  
     e(  3 -  4) =      2.76304  eV     2   --> B_1  D_3  S_3  
     e(  3 -  4) =      2.76304  eV     2   --> B_2  D_4  S_4  
     e(  5 -  5) =      6.46644  eV     1   --> A_1  D_1  S_1  
     e(  6 -  6) =      6.59200  eV     1   --> A_1  D_1  S_1  
     e(  7 -  7) =     15.39177  eV     1   -->   ?

 **************************************************************************

 **************************************************************************

                    xk=(   0.17201,   0.00000,   0.00000  )

     Band symmetry, C_2v (mm2)  point group:

     e(  1 -  1) =     -3.26856  eV     1   --> A_1  D_1  S_1  
     e(  2 -  2) =     -2.87848  eV     1   --> A_1  D_1  S_1  
     e(  3 -  4) =      2.76195  eV     2   --> B_1  D_3  S_3  
     e(  3 -  4) =      2.76195  eV     2   --> B_2  D_4  S_4  
     e(  5 -  5) =      6.47399  eV     1   --> A_1  D_1  S_1  
     e(  6 -  6) =      6.58161  eV     1   --> A_1  D_1  S_1  
     e(  7 -  7) =     15.40088  eV     1   -->   ?

 **************************************************************************

 **************************************************************************

                    xk=(   0.17280,   0.00000,   0.00000  )

     Band symmetry, C_2v (mm2)  point group:

     e(  1 -  1) =     -3.23664  eV     1   --> A_1  D_1  S_1  
     e(  2 -  2) =     -2.91157  eV     1   --> A_1  D_1  S_1  
     e(  3 -  4) =      2.76103  eV     2   --> B_1  D_3  S_3  
     e(  3 -  4) =      2.76103  eV     2   --> B_2  D_4  S_4  
     e(  5 -  5) =      6.48176  eV     1   --> A_1  D_1  S_1  
     e(  6 -  6) =      6.57143  eV     1   --> A_1  D_1  S_1  
     e(  7 -  7) =     15.40861  eV     1   -->   ?

 **************************************************************************

 **************************************************************************

                    xk=(   0.17358,   0.00000,   0.00000  )

     Band symmetry, C_2v (mm2)  point group:

     e(  1 -  1) =     -3.20462  eV     1   --> A_1  D_1  S_1  
     e(  2 -  2) =     -2.94456  eV     1   --> A_1  D_1  S_1  
     e(  3 -  4) =      2.76027  eV     2   --> B_1  D_3  S_3  
     e(  3 -  4) =      2.76027  eV     2   --> B_2  D_4  S_4  
     e(  5 -  5) =      6.48971  eV     1   --> A_1  D_1  S_1  
     e(  6 -  6) =      6.56148  eV     1   --> A_1  D_1  S_1  
     e(  7 -  7) =     15.41496  eV     1   -->   ?

 **************************************************************************

 **************************************************************************

                    xk=(   0.17437,   0.00000,   0.00000  )

     Band symmetry, C_2v (mm2)  point group:

     e(  1 -  1) =     -3.17249  eV     1   --> A_1  D_1  S_1  
     e(  2 -  2) =     -2.97744  eV     1   --> A_1  D_1  S_1  
     e(  3 -  4) =      2.75969  eV     2   --> B_1  D_3  S_3  
     e(  3 -  4) =      2.75969  eV     2   --> B_2  D_4  S_4  
     e(  5 -  5) =      6.49792  eV     1   --> A_1  D_1  S_1  
     e(  6 -  6) =      6.55174  eV     1   --> A_1  D_1  S_1  
     e(  7 -  7) =     15.41994  eV     1   -->   ?

 **************************************************************************

 **************************************************************************

                    xk=(   0.17516,   0.00000,   0.00000  )

     Band symmetry, C_2v (mm2)  point group:

     e(  1 -  1) =     -3.14025  eV     1   --> A_1  D_1  S_1  
     e(  2 -  2) =     -3.01021  eV     1   --> A_1  D_1  S_1  
     e(  3 -  4) =      2.75927  eV     2   --> B_1  D_3  S_3  
     e(  3 -  4) =      2.75927  eV     2   --> B_2  D_4  S_4  
     e(  5 -  5) =      6.50634  eV     1   --> A_1  D_1  S_1  
     e(  6 -  6) =      6.54222  eV     1   --> A_1  D_1  S_1  
     e(  7 -  7) =     15.42350  eV     1   -->   ?

 **************************************************************************

 **************************************************************************

                    xk=(   0.17595,   0.00000,   0.00000  )

     Band symmetry, C_2v (mm2)  point group:

     e(  1 -  1) =     -3.10790  eV     1   --> A_1  D_1  S_1  
     e(  2 -  2) =     -3.04288  eV     1   --> A_1  D_1  S_1  
     e(  3 -  4) =      2.75902  eV     2   --> B_1  D_3  S_3  
     e(  3 -  4) =      2.75902  eV     2   --> B_2  D_4  S_4  
     e(  5 -  5) =      6.51499  eV     1   --> A_1  D_1  S_1  
     e(  6 -  6) =      6.53293  eV     1   --> A_1  D_1  S_1  
     e(  7 -  7) =     15.42564  eV     1   -->   ?

 **************************************************************************

 **************************************************************************

                    xk=(   0.17674,   0.00000,   0.00000  )

     point group D_2d (-42m)
     there are  5 classes
     the character table:

       E     2S4   C2    2C2'  2s_d 
A_1    1.00  1.00  1.00  1.00  1.00
A_2    1.00  1.00  1.00 -1.00 -1.00
B_1    1.00 -1.00  1.00  1.00 -1.00
B_2    1.00 -1.00  1.00 -1.00  1.00
E      2.00  0.00 -2.00  0.00  0.00

     the symmetry operations in each class and the name of the first element:

     E        1
                                                                 
     2S4      7    8
                                                                 
     C2       4
                                                                 
     2C2'     2    3
                                                                 
     2s_d     5    6
                                                                 

     Band symmetry, D_2d (-42m) point group:

     e(  1 -  1) =     -3.07551  eV     1   --> A_1  X_1  W_1  
     e(  2 -  2) =     -3.07538  eV     1   --> B_2  X_3  W_2  
     e(  3 -  4) =      2.75894  eV     2   --> E    X_5  W_3  
     e(  5 -  6) =      6.52384  eV     2   --> A_1  X_1  W_1  
     e(  5 -  6) =      6.52384  eV     2   --> B_2  X_3  W_2  
     e(  7 -  7) =     15.42635  eV     1   -->   ?

 **************************************************************************
 
     BANDS        :     7.25s CPU         9.89s WALL

 
   This run was terminated on:  22: 7:39  10Sep2020            

=------------------------------------------------------------------------------=
   JOB DONE.
=------------------------------------------------------------------------------=
