
     Program PWSCF v.6.2 starts on 10Sep2020 at 22: 0:58 

     This program is part of the open-source Quantum ESPRESSO suite
     for quantum simulation of materials; please cite
         "P. Giannozzi et al., J. Phys.:Condens. Matter 21 395502 (2009);
         "P. Giannozzi et al., J. Phys.:Condens. Matter 29 465901 (2017);
          URL http://www.quantum-espresso.org", 
     in publications or presentations arising from this work. More details at
     http://www.quantum-espresso.org/quote

     Parallel version (MPI), running on    32 processors

     MPI processes distributed on     2 nodes
     R & G space division:  proc/nbgrp/npool/nimage =      32
     Waiting for input...
     Reading input from standard input

     Current dimensions of program PWSCF are:
     Max number of different atomic species (ntypx) = 10
     Max number of k-points (npk) =  40000
     Max angular momentum in pseudopotentials (lmaxx) =  3

     Atomic positions and unit cell read from directory:
     /home/theodoros/PROJ_TUTORIALS/theodoros/Ge_bulk/test/SCF/tmp/scf.save/
 

     Subspace diagonalization in iterative solution of the eigenvalue problem:
     one sub-group per band group will be used
     scalapack distributed-memory algorithm (size of sub-group:  4*  4 procs)

 
     Parallelization info
     --------------------
     sticks:   dense  smooth     PW     G-vecs:    dense   smooth      PW
     Min          17      17      5                  268      268      43
     Max          18      18      6                  272      272      46
     Sum         559     559    163                 8609     8609    1411
 


     bravais-lattice index     =            0
     lattice parameter (alat)  =       1.8897  a.u.
     unit-cell volume          =     305.5804 (a.u.)^3
     number of atoms/cell      =            2
     number of atomic types    =            1
     number of electrons       =         8.00
     number of Kohn-Sham states=            7
     kinetic-energy cutoff     =      35.0000  Ry
     charge density cutoff     =     140.0000  Ry
     Exchange-correlation      =  SLA  PW   PBX  PBC ( 1  4  3  4 0 0)

     celldm(1)=   1.889726  celldm(2)=   0.000000  celldm(3)=   0.000000
     celldm(4)=   0.000000  celldm(5)=   0.000000  celldm(6)=   0.000000

     crystal axes: (cart. coord. in units of alat)
               a(1) = (   0.000000   2.829000   2.829000 )  
               a(2) = (   2.829000   0.000000   2.829000 )  
               a(3) = (   2.829000   2.829000   0.000000 )  

     reciprocal axes: (cart. coord. in units 2 pi/alat)
               b(1) = ( -0.176741  0.176741  0.176741 )  
               b(2) = (  0.176741 -0.176741  0.176741 )  
               b(3) = (  0.176741  0.176741 -0.176741 )  


     PseudoPot. # 1 for Ge read from file:
     /shared/ESPRESSO/PSLIBRARY/1.0.0/pbe/PSEUDOPOTENTIALS/Ge.pbe-n-kjpaw_psl.1.0.0.UPF
     MD5 check sum: e6063357164f7ec107b9a3d2bf12fbbf
     Pseudo is Projector augmented-wave + core cor, Zval =  4.0
     Generated using "atomic" code by A. Dal Corso  (Quantum ESPRESSO distribution)
     Shape of augmentation charge: PSQ
     Using radial grid of 1207 points,  4 beta functions with: 
                l(1) =   0
                l(2) =   0
                l(3) =   1
                l(4) =   1
     Q(r) pseudized with 0 coefficients 


     atomic species   valence    mass     pseudopotential
        Ge             4.00    72.64000     Ge( 1.00)

     24 Sym. Ops. (no inversion) found
          (note: 24 additional sym.ops. were found but ignored
           their fractional translations are incommensurate with FFT grid)


   Cartesian axes

     site n.     atom                  positions (alat units)
         1           Ge  tau(   1) = (   0.0000000   0.0000000   0.0000000  )
         2           Ge  tau(   2) = (   1.4145000   1.4145000   1.4145000  )

     number of k points=   500  Fermi-Dirac smearing, width (Ry)=  0.0070

     Number of k-points >= 100: set verbosity='high' to print them.

     Dense  grid:     8609 G-vectors     FFT dimensions: (  30,  30,  30)

     Estimated max dynamical RAM per process >       0.38 MB

     Estimated total dynamical RAM >      12.10 MB

     The potential is recalculated from file :
     /home/theodoros/PROJ_TUTORIALS/theodoros/Ge_bulk/test/SCF/tmp/scf.save/charge-density.dat

     Starting wfc are    8 randomized atomic wfcs
     Checking if some PAW data can be deallocated... 

     Band Structure Calculation
     Davidson diagonalization with overlap

     ethr =  1.25E-08,  avg # of iterations = 11.1

     total cpu time spent up to now is      221.1 secs

     End of band structure calculation

     Number of k-points >= 100: set verbosity='high' to print the bands.

     Writing output data file scf.save
 
     init_run     :      0.07s CPU      0.08s WALL (       1 calls)
     electrons    :     25.46s CPU    122.54s WALL (       1 calls)

     Called by init_run:
     wfcinit      :      0.00s CPU      0.00s WALL (       1 calls)
     potinit      :      0.02s CPU      0.03s WALL (       1 calls)

     Called by electrons:
     c_bands      :     25.46s CPU    122.54s WALL (       1 calls)
     v_of_rho     :      0.00s CPU      0.00s WALL (       1 calls)
     newd         :      0.00s CPU      0.00s WALL (       1 calls)
     PAW_pot      :      0.02s CPU      0.02s WALL (       1 calls)

     Called by c_bands:
     init_us_2    :      0.01s CPU      0.01s WALL (     500 calls)
     cegterg      :     20.78s CPU     21.00s WALL (     500 calls)

     Called by sum_band:

     Called by *egterg:
     h_psi        :      4.33s CPU      4.53s WALL (    6569 calls)
     s_psi        :      0.05s CPU      0.06s WALL (    6569 calls)
     g_psi        :      0.02s CPU      0.02s WALL (    5569 calls)
     cdiaghg      :     13.78s CPU     13.77s WALL (    6069 calls)

     Called by h_psi:
     h_psi:pot    :      4.32s CPU      4.52s WALL (    6569 calls)
     h_psi:calbec :      0.31s CPU      0.34s WALL (    6569 calls)
     vloc_psi     :      3.91s CPU      4.07s WALL (    6569 calls)
     add_vuspsi   :      0.06s CPU      0.07s WALL (    6569 calls)

     General routines
     calbec       :      0.30s CPU      0.33s WALL (    6569 calls)
     fft          :      0.00s CPU      0.00s WALL (      13 calls)
     fftw         :      3.79s CPU      3.93s WALL (   67736 calls)
     davcio       :      0.01s CPU     96.83s WALL (     500 calls)
 
     Parallel routines
     fft_scatt_xy :      0.08s CPU      0.12s WALL (   67749 calls)
     fft_scatt_yz :      3.01s CPU      3.05s WALL (   67749 calls)
 
     PWSCF        :  1m 7.34s CPU     5m50.88s WALL

 
   This run was terminated on:  22: 6:49  10Sep2020            

=------------------------------------------------------------------------------=
   JOB DONE.
=------------------------------------------------------------------------------=
