
     Program PWSCF v.6.2 starts on 10Jun2020 at  5:11:22 

     This program is part of the open-source Quantum ESPRESSO suite
     for quantum simulation of materials; please cite
         "P. Giannozzi et al., J. Phys.:Condens. Matter 21 395502 (2009);
         "P. Giannozzi et al., J. Phys.:Condens. Matter 29 465901 (2017);
          URL http://www.quantum-espresso.org", 
     in publications or presentations arising from this work. More details at
     http://www.quantum-espresso.org/quote

     Parallel version (MPI), running on    16 processors

     MPI processes distributed on     1 nodes
     R & G space division:  proc/nbgrp/npool/nimage =      16
     Waiting for input...
     Reading input from standard input
     Message from routine read_cards :
     DEPRECATED: no units specified in CELL_PARAMETERS card

     Current dimensions of program PWSCF are:
     Max number of different atomic species (ntypx) = 10
     Max number of k-points (npk) =  40000
     Max angular momentum in pseudopotentials (lmaxx) =  3

     Subspace diagonalization in iterative solution of the eigenvalue problem:
     one sub-group per band group will be used
     scalapack distributed-memory algorithm (size of sub-group:  2*  2 procs)

 
     Parallelization info
     --------------------
     sticks:   dense  smooth     PW     G-vecs:    dense   smooth      PW
     Min          48      48     15                  897      897     152
     Max          49      49     16                  901      901     155
     Sum         769     769    241                14361    14361    2445
 


     bravais-lattice index     =            0
     lattice parameter (alat)  =       1.8897  a.u.
     unit-cell volume          =     304.2860 (a.u.)^3
     number of atoms/cell      =            2
     number of atomic types    =            1
     number of electrons       =         8.00
     number of Kohn-Sham states=            8
     kinetic-energy cutoff     =      50.0000  Ry
     charge density cutoff     =     200.0000  Ry
     convergence threshold     =      1.0E-06
     mixing beta               =       0.7000
     number of iterations used =            8  plain     mixing
     Exchange-correlation      =  SLA  PW   PBX  PBC ( 1  4  3  4 0 0)

     celldm(1)=   1.889726  celldm(2)=   0.000000  celldm(3)=   0.000000
     celldm(4)=   0.000000  celldm(5)=   0.000000  celldm(6)=   0.000000

     crystal axes: (cart. coord. in units of alat)
               a(1) = (   0.000000   2.825000   2.825000 )  
               a(2) = (   2.825000   0.000000   2.825000 )  
               a(3) = (   2.825000   2.825000   0.000000 )  

     reciprocal axes: (cart. coord. in units 2 pi/alat)
               b(1) = ( -0.176991  0.176991  0.176991 )  
               b(2) = (  0.176991 -0.176991  0.176991 )  
               b(3) = (  0.176991  0.176991 -0.176991 )  


     PseudoPot. # 1 for Ge read from file:
     /shared/ESPRESSO/PSLIBRARY/1.0.0/pbe/PSEUDOPOTENTIALS/Ge.pbe-n-kjpaw_psl.1.0.0.UPF
     MD5 check sum: e6063357164f7ec107b9a3d2bf12fbbf
     Pseudo is Projector augmented-wave + core cor, Zval =  4.0
     Generated using "atomic" code by A. Dal Corso  (Quantum ESPRESSO distribution)
     Shape of augmentation charge: PSQ
     Using radial grid of 1207 points,  4 beta functions with: 
                l(1) =   0
                l(2) =   0
                l(3) =   1
                l(4) =   1
     Q(r) pseudized with 0 coefficients 


     atomic species   valence    mass     pseudopotential
        Ge             4.00    72.63000     Ge( 1.00)

     48 Sym. Ops., with inversion, found (24 have fractional translation)



   Cartesian axes

     site n.     atom                  positions (alat units)
         1           Ge  tau(   1) = (   0.0000000   0.0000000   0.0000000  )
         2           Ge  tau(   2) = (   1.4125000   1.4125000   1.4125000  )

     number of k points=   104  Fermi-Dirac smearing, width (Ry)=  0.0070

     Number of k-points >= 100: set verbosity='high' to print them.

     Dense  grid:    14361 G-vectors     FFT dimensions: (  36,  36,  36)

     Estimated max dynamical RAM per process >       2.83 MB

     Estimated total dynamical RAM >      45.35 MB

     Initial potential from superposition of free atoms

     starting charge    7.99847, renormalised to    8.00000
     Starting wfc are    8 randomized atomic wfcs
     Checking if some PAW data can be deallocated... 

     total cpu time spent up to now is        2.7 secs

     Self-consistent Calculation

     iteration #  1     ecut=    50.00 Ry     beta= 0.70
     Davidson diagonalization with overlap
     ethr =  1.00E-02,  avg # of iterations =  3.1

     Threshold (ethr) on eigenvalues was too large:
     Diagonalizing with lowered threshold

     Davidson diagonalization with overlap
     ethr =  3.97E-04,  avg # of iterations =  1.8

     total cpu time spent up to now is       10.1 secs

     total energy              =    -328.23397619 Ry
     Harris-Foulkes estimate   =    -328.23998265 Ry
     estimated scf accuracy    <       0.03190720 Ry

     iteration #  2     ecut=    50.00 Ry     beta= 0.70
     Davidson diagonalization with overlap
     ethr =  3.99E-04,  avg # of iterations =  1.0

     total cpu time spent up to now is       11.8 secs

     total energy              =    -328.23480610 Ry
     Harris-Foulkes estimate   =    -328.23489221 Ry
     estimated scf accuracy    <       0.00167040 Ry

     iteration #  3     ecut=    50.00 Ry     beta= 0.70
     Davidson diagonalization with overlap
     ethr =  2.09E-05,  avg # of iterations =  1.8

     total cpu time spent up to now is       13.7 secs

     total energy              =    -328.23485460 Ry
     Harris-Foulkes estimate   =    -328.23485052 Ry
     estimated scf accuracy    <       0.00001693 Ry

     iteration #  4     ecut=    50.00 Ry     beta= 0.70
     Davidson diagonalization with overlap
     ethr =  2.12E-07,  avg # of iterations =  2.5

     total cpu time spent up to now is       16.0 secs

     End of self-consistent calculation

     Number of k-points >= 100: set verbosity='high' to print the bands.

     the Fermi energy is     5.9585 ev

!    total energy              =    -328.23485797 Ry
     Harris-Foulkes estimate   =    -328.23485782 Ry
     estimated scf accuracy    <       0.00000011 Ry

     total all-electron energy =     -8395.999626 Ry

     The total energy is the sum of the following terms:

     one-electron contribution =       5.57632732 Ry
     hartree contribution      =       1.14888652 Ry
     xc contribution           =     -13.27341340 Ry
     ewald contribution        =     -16.14482554 Ry
     one-center paw contrib.   =    -305.54172062 Ry
     smearing contrib. (-TS)   =      -0.00011224 Ry

     convergence has been achieved in   4 iterations

     Writing output data file scf.save
 
     init_run     :      1.25s CPU      1.46s WALL (       1 calls)
     electrons    :     11.49s CPU     14.21s WALL (       1 calls)

     Called by init_run:
     wfcinit      :      0.81s CPU      0.85s WALL (       1 calls)
     potinit      :      0.13s CPU      0.17s WALL (       1 calls)

     Called by electrons:
     c_bands      :     10.15s CPU     11.93s WALL (       5 calls)
     sum_band     :      1.04s CPU      1.08s WALL (       5 calls)
     v_of_rho     :      0.06s CPU      0.07s WALL (       5 calls)
     newd         :      0.01s CPU      0.02s WALL (       5 calls)
     PAW_pot      :      0.31s CPU      0.38s WALL (       5 calls)
     mix_rho      :      0.00s CPU      0.00s WALL (       5 calls)

     Called by c_bands:
     init_us_2    :      0.11s CPU      0.11s WALL (    1144 calls)
     cegterg      :      9.82s CPU     11.56s WALL (     520 calls)

     Called by sum_band:
     sum_band:bec :      0.00s CPU      0.01s WALL (     520 calls)
     addusdens    :      0.01s CPU      0.02s WALL (       5 calls)

     Called by *egterg:
     h_psi        :      5.09s CPU      5.50s WALL (    1688 calls)
     s_psi        :      0.09s CPU      0.14s WALL (    1688 calls)
     g_psi        :      0.02s CPU      0.02s WALL (    1064 calls)
     cdiaghg      :      3.80s CPU      4.72s WALL (    1480 calls)

     Called by h_psi:
     h_psi:pot    :      5.08s CPU      5.48s WALL (    1688 calls)
     h_psi:calbec :      0.34s CPU      0.38s WALL (    1688 calls)
     vloc_psi     :      4.65s CPU      4.93s WALL (    1688 calls)
     add_vuspsi   :      0.08s CPU      0.15s WALL (    1688 calls)

     General routines
     calbec       :      0.40s CPU      0.47s WALL (    2208 calls)
     fft          :      0.05s CPU      0.06s WALL (      67 calls)
     fftw         :      5.22s CPU      5.47s WALL (   25170 calls)
     davcio       :      0.00s CPU      0.00s WALL (     104 calls)
 
     Parallel routines
     fft_scatt_xy :      0.25s CPU      0.28s WALL (   25237 calls)
     fft_scatt_yz :      3.53s CPU      3.63s WALL (   25237 calls)
 
     PWSCF        :  0m13.62s CPU     2m50.63s WALL

 
   This run was terminated on:   5:14:12  10Jun2020            

=------------------------------------------------------------------------------=
   JOB DONE.
=------------------------------------------------------------------------------=
