
     Program PWSCF v.6.2 starts on 10Jun2020 at  5:35:42 

     This program is part of the open-source Quantum ESPRESSO suite
     for quantum simulation of materials; please cite
         "P. Giannozzi et al., J. Phys.:Condens. Matter 21 395502 (2009);
         "P. Giannozzi et al., J. Phys.:Condens. Matter 29 465901 (2017);
          URL http://www.quantum-espresso.org", 
     in publications or presentations arising from this work. More details at
     http://www.quantum-espresso.org/quote

     Parallel version (MPI), running on    16 processors

     MPI processes distributed on     1 nodes
     R & G space division:  proc/nbgrp/npool/nimage =      16
     Waiting for input...
     Reading input from standard input
     Message from routine read_cards :
     DEPRECATED: no units specified in CELL_PARAMETERS card

     Current dimensions of program PWSCF are:
     Max number of different atomic species (ntypx) = 10
     Max number of k-points (npk) =  40000
     Max angular momentum in pseudopotentials (lmaxx) =  3

     Subspace diagonalization in iterative solution of the eigenvalue problem:
     one sub-group per band group will be used
     scalapack distributed-memory algorithm (size of sub-group:  2*  2 procs)

 
     Parallelization info
     --------------------
     sticks:   dense  smooth     PW     G-vecs:    dense   smooth      PW
     Min          48      48     15                  897      897     151
     Max          49      49     16                  901      901     153
     Sum         769     769    241                14361    14361    2421
 


     bravais-lattice index     =            0
     lattice parameter (alat)  =       1.8897  a.u.
     unit-cell volume          =     304.2860 (a.u.)^3
     number of atoms/cell      =            2
     number of atomic types    =            1
     number of electrons       =         8.00
     number of Kohn-Sham states=            8
     kinetic-energy cutoff     =      50.0000  Ry
     charge density cutoff     =     200.0000  Ry
     convergence threshold     =      1.0E-06
     mixing beta               =       0.7000
     number of iterations used =            8  plain     mixing
     Exchange-correlation      =  SLA  PW   PBX  PBC ( 1  4  3  4 0 0)

     celldm(1)=   1.889726  celldm(2)=   0.000000  celldm(3)=   0.000000
     celldm(4)=   0.000000  celldm(5)=   0.000000  celldm(6)=   0.000000

     crystal axes: (cart. coord. in units of alat)
               a(1) = (   0.000000   2.825000   2.825000 )  
               a(2) = (   2.825000   0.000000   2.825000 )  
               a(3) = (   2.825000   2.825000   0.000000 )  

     reciprocal axes: (cart. coord. in units 2 pi/alat)
               b(1) = ( -0.176991  0.176991  0.176991 )  
               b(2) = (  0.176991 -0.176991  0.176991 )  
               b(3) = (  0.176991  0.176991 -0.176991 )  


     PseudoPot. # 1 for Ge read from file:
     /shared/ESPRESSO/PSLIBRARY/1.0.0/pbe/PSEUDOPOTENTIALS/Ge.pbe-n-kjpaw_psl.1.0.0.UPF
     MD5 check sum: e6063357164f7ec107b9a3d2bf12fbbf
     Pseudo is Projector augmented-wave + core cor, Zval =  4.0
     Generated using "atomic" code by A. Dal Corso  (Quantum ESPRESSO distribution)
     Shape of augmentation charge: PSQ
     Using radial grid of 1207 points,  4 beta functions with: 
                l(1) =   0
                l(2) =   0
                l(3) =   1
                l(4) =   1
     Q(r) pseudized with 0 coefficients 


     atomic species   valence    mass     pseudopotential
        Ge             4.00    72.63000     Ge( 1.00)

     48 Sym. Ops., with inversion, found (24 have fractional translation)



   Cartesian axes

     site n.     atom                  positions (alat units)
         1           Ge  tau(   1) = (   0.0000000   0.0000000   0.0000000  )
         2           Ge  tau(   2) = (   1.4125000   1.4125000   1.4125000  )

     number of k points=    20  Fermi-Dirac smearing, width (Ry)=  0.0070
                       cart. coord. in units 2pi/alat
        k(    1) = (   0.0000000   0.0000000   0.0000000), wk =   0.0058309
        k(    2) = (   0.0252845   0.0252845  -0.0252845), wk =   0.0466472
        k(    3) = (   0.0505689   0.0505689  -0.0505689), wk =   0.0466472
        k(    4) = (   0.0758534   0.0758534  -0.0758534), wk =   0.0466472
        k(    5) = (   0.0505689   0.0000000   0.0000000), wk =   0.0349854
        k(    6) = (   0.0758534   0.0252845  -0.0252845), wk =   0.1399417
        k(    7) = (   0.1011378   0.0505689  -0.0505689), wk =   0.1399417
        k(    8) = (  -0.0505689  -0.1011378   0.1011378), wk =   0.1399417
        k(    9) = (  -0.0252845  -0.0758534   0.0758534), wk =   0.1399417
        k(   10) = (   0.0000000  -0.0505689   0.0505689), wk =   0.0699708
        k(   11) = (   0.1011378   0.0000000   0.0000000), wk =   0.0349854
        k(   12) = (   0.1264223   0.0252845  -0.0252845), wk =   0.1399417
        k(   13) = (  -0.0252845  -0.1264223   0.1264223), wk =   0.1399417
        k(   14) = (   0.0000000  -0.1011378   0.1011378), wk =   0.0699708
        k(   15) = (   0.1517067   0.0000000   0.0000000), wk =   0.0349854
        k(   16) = (   0.0000000  -0.1517067   0.1517067), wk =   0.0699708
        k(   17) = (   0.1011378   0.0505689   0.0000000), wk =   0.1399417
        k(   18) = (  -0.0505689  -0.1011378   0.1517067), wk =   0.2798834
        k(   19) = (  -0.0252845  -0.1264223   0.1769912), wk =   0.1399417
        k(   20) = (   0.0000000  -0.1011378   0.1517067), wk =   0.1399417

     Dense  grid:    14361 G-vectors     FFT dimensions: (  36,  36,  36)

     Estimated max dynamical RAM per process >       1.68 MB

     Estimated total dynamical RAM >      26.81 MB

     Initial potential from superposition of free atoms

     starting charge    7.99847, renormalised to    8.00000
     Starting wfc are    8 randomized atomic wfcs
     Checking if some PAW data can be deallocated... 

     total cpu time spent up to now is        1.5 secs

     Self-consistent Calculation

     iteration #  1     ecut=    50.00 Ry     beta= 0.70
     Davidson diagonalization with overlap
     ethr =  1.00E-02,  avg # of iterations =  3.0

     Threshold (ethr) on eigenvalues was too large:
     Diagonalizing with lowered threshold

     Davidson diagonalization with overlap
     ethr =  4.05E-04,  avg # of iterations =  1.7

     total cpu time spent up to now is        3.5 secs

     total energy              =    -328.23245512 Ry
     Harris-Foulkes estimate   =    -328.23857705 Ry
     estimated scf accuracy    <       0.03249915 Ry

     iteration #  2     ecut=    50.00 Ry     beta= 0.70
     Davidson diagonalization with overlap
     ethr =  4.06E-04,  avg # of iterations =  1.0

     total cpu time spent up to now is        3.9 secs

     total energy              =    -328.23330581 Ry
     Harris-Foulkes estimate   =    -328.23339129 Ry
     estimated scf accuracy    <       0.00171395 Ry

     iteration #  3     ecut=    50.00 Ry     beta= 0.70
     Davidson diagonalization with overlap
     ethr =  2.14E-05,  avg # of iterations =  1.6

     total cpu time spent up to now is        4.3 secs

     total energy              =    -328.23335777 Ry
     Harris-Foulkes estimate   =    -328.23335359 Ry
     estimated scf accuracy    <       0.00001695 Ry

     iteration #  4     ecut=    50.00 Ry     beta= 0.70
     Davidson diagonalization with overlap
     ethr =  2.12E-07,  avg # of iterations =  2.5

     total cpu time spent up to now is        4.8 secs

     End of self-consistent calculation

          k = 0.0000 0.0000 0.0000 (  1837 PWs)   bands (ev):

    -6.9187   5.8487   5.8487   5.8487   6.0230   8.4270   8.4270   8.4270

          k = 0.0253 0.0253-0.0253 (  1829 PWs)   bands (ev):

    -6.6719   3.1616   5.4371   5.4371   6.9472   8.9875   8.9875   9.6978

          k = 0.0506 0.0506-0.0506 (  1829 PWs)   bands (ev):

    -5.9675   0.5153   4.8427   4.8427   6.4558   9.5946   9.5946  12.2678

          k = 0.0759 0.0759-0.0759 (  1817 PWs)   bands (ev):

    -5.0517  -1.4141   4.5050   4.5050   6.1166   9.6045   9.6045  13.2145

          k = 0.0506 0.0000 0.0000 (  1836 PWs)   bands (ev):

    -6.5878   3.1507   4.7941   4.7941   7.6296   8.4574   9.9240   9.9240

          k = 0.0759 0.0253-0.0253 (  1830 PWs)   bands (ev):

    -6.0262   1.1289   4.0074   4.2011   7.7363   8.7647  10.8080  10.8340

          k = 0.1011 0.0506-0.0506 (  1816 PWs)   bands (ev):

    -5.1158  -0.9257   3.2444   3.9739   7.5055   9.3964  10.7442  11.8038

          k =-0.0506-0.1011 0.1011 (  1816 PWs)   bands (ev):

    -4.6462  -1.6948   2.8432   4.1610   7.4087   9.5860  10.3487  13.6615

          k =-0.0253-0.0759 0.0759 (  1817 PWs)   bands (ev):

    -5.4453  -0.2933   2.9286   4.7005   7.6124   9.9041   9.9315  12.0538

          k = 0.0000-0.0506 0.0506 (  1833 PWs)   bands (ev):

    -6.2681   1.7508   3.7514   5.3528   7.7541   9.1811   9.3732  10.9526

          k = 0.1011 0.0000 0.0000 (  1824 PWs)   bands (ev):

    -5.6091   0.4946   3.5503   3.5503   6.6713   8.3166  12.4207  12.4207

          k = 0.1264 0.0253-0.0253 (  1799 PWs)   bands (ev):

    -4.7762  -0.9552   2.5739   3.2662   6.9999   8.4787  12.2273  12.9423

          k =-0.0253-0.1264 0.1264 (  1821 PWs)   bands (ev):

    -3.9798  -2.0133   1.6558   3.4295   7.1946  10.7659  11.8512  12.4207

          k = 0.0000-0.1011 0.1011 (  1814 PWs)   bands (ev):

    -4.5614  -1.3046   1.6076   3.9922   7.6362  11.3797  11.6309  11.7472

          k = 0.1517 0.0000 0.0000 (  1796 PWs)   bands (ev):

    -4.0301  -1.9467   2.8778   2.8778   6.3885   6.9644  14.9005  14.9005

          k = 0.0000-0.1517 0.1517 (  1804 PWs)   bands (ev):

    -3.1762  -2.8498   2.0751   2.9378   6.7077   7.9643  14.3971  14.5740

          k = 0.1011 0.0506 0.0000 (  1812 PWs)   bands (ev):

    -5.3322  -0.1469   2.5874   3.8883   8.3798   8.9113  10.3639  12.1341

          k =-0.0506-0.1011 0.1517 (  1806 PWs)   bands (ev):

    -4.4013  -1.5701   1.9559   3.3800   8.5750   9.3782  11.2149  12.6490

          k =-0.0253-0.1264 0.1770 (  1809 PWs)   bands (ev):

    -3.8646  -2.0513   2.1261   2.5508   8.0186   8.3836  11.9206  14.1455

          k = 0.0000-0.1011 0.1517 (  1813 PWs)   bands (ev):

    -3.5002  -2.4116   1.5608   2.6336   8.5088  10.8439  11.3136  11.4822

     the Fermi energy is     5.9129 ev

!    total energy              =    -328.23336143 Ry
     Harris-Foulkes estimate   =    -328.23336126 Ry
     estimated scf accuracy    <       0.00000012 Ry

     total all-electron energy =     -8395.998129 Ry

     The total energy is the sum of the following terms:

     one-electron contribution =       5.57597037 Ry
     hartree contribution      =       1.15171582 Ry
     xc contribution           =     -13.27441787 Ry
     ewald contribution        =     -16.14482554 Ry
     one-center paw contrib.   =    -305.54153830 Ry
     smearing contrib. (-TS)   =      -0.00026591 Ry

     convergence has been achieved in   4 iterations

     Writing output data file scf.save
 
     init_run     :      0.33s CPU      0.39s WALL (       1 calls)
     electrons    :      2.69s CPU      4.00s WALL (       1 calls)

     Called by init_run:
     wfcinit      :      0.13s CPU      0.15s WALL (       1 calls)
     potinit      :      0.08s CPU      0.12s WALL (       1 calls)

     Called by electrons:
     c_bands      :      2.19s CPU      2.68s WALL (       5 calls)
     sum_band     :      0.22s CPU      0.23s WALL (       5 calls)
     v_of_rho     :      0.03s CPU      0.04s WALL (       5 calls)
     newd         :      0.01s CPU      0.02s WALL (       5 calls)
     PAW_pot      :      0.27s CPU      0.33s WALL (       5 calls)
     mix_rho      :      0.00s CPU      0.00s WALL (       5 calls)

     Called by c_bands:
     init_us_2    :      0.03s CPU      0.02s WALL (     220 calls)
     cegterg      :      2.13s CPU      2.60s WALL (     100 calls)

     Called by sum_band:
     sum_band:bec :      0.00s CPU      0.00s WALL (     100 calls)
     addusdens    :      0.01s CPU      0.02s WALL (       5 calls)

     Called by *egterg:
     h_psi        :      1.00s CPU      1.12s WALL (     315 calls)
     s_psi        :      0.03s CPU      0.03s WALL (     315 calls)
     g_psi        :      0.00s CPU      0.00s WALL (     195 calls)
     cdiaghg      :      0.77s CPU      0.92s WALL (     275 calls)

     Called by h_psi:
     h_psi:pot    :      0.99s CPU      1.11s WALL (     315 calls)
     h_psi:calbec :      0.07s CPU      0.09s WALL (     315 calls)
     vloc_psi     :      0.91s CPU      0.99s WALL (     315 calls)
     add_vuspsi   :      0.01s CPU      0.03s WALL (     315 calls)

     General routines
     calbec       :      0.08s CPU      0.11s WALL (     415 calls)
     fft          :      0.02s CPU      0.03s WALL (      67 calls)
     fftw         :      1.02s CPU      1.09s WALL (    4810 calls)
     davcio       :      0.00s CPU      0.00s WALL (      20 calls)
 
     Parallel routines
     fft_scatt_xy :      0.06s CPU      0.06s WALL (    4877 calls)
     fft_scatt_yz :      0.69s CPU      0.73s WALL (    4877 calls)
 
     PWSCF        :  0m 3.81s CPU     2m46.38s WALL

 
   This run was terminated on:   5:38:28  10Jun2020            

=------------------------------------------------------------------------------=
   JOB DONE.
=------------------------------------------------------------------------------=
