
     Program PWSCF v.6.2 starts on 10Jun2020 at  5:35:22 

     This program is part of the open-source Quantum ESPRESSO suite
     for quantum simulation of materials; please cite
         "P. Giannozzi et al., J. Phys.:Condens. Matter 21 395502 (2009);
         "P. Giannozzi et al., J. Phys.:Condens. Matter 29 465901 (2017);
          URL http://www.quantum-espresso.org", 
     in publications or presentations arising from this work. More details at
     http://www.quantum-espresso.org/quote

     Parallel version (MPI), running on    16 processors

     MPI processes distributed on     1 nodes
     R & G space division:  proc/nbgrp/npool/nimage =      16
     Waiting for input...
     Reading input from standard input
     Message from routine read_cards :
     DEPRECATED: no units specified in CELL_PARAMETERS card

     Current dimensions of program PWSCF are:
     Max number of different atomic species (ntypx) = 10
     Max number of k-points (npk) =  40000
     Max angular momentum in pseudopotentials (lmaxx) =  3

     Subspace diagonalization in iterative solution of the eigenvalue problem:
     one sub-group per band group will be used
     scalapack distributed-memory algorithm (size of sub-group:  2*  2 procs)

 
     Parallelization info
     --------------------
     sticks:   dense  smooth     PW     G-vecs:    dense   smooth      PW
     Min          48      48     15                  897      897     151
     Max          49      49     16                  901      901     153
     Sum         769     769    241                14361    14361    2421
 


     bravais-lattice index     =            0
     lattice parameter (alat)  =       1.8897  a.u.
     unit-cell volume          =     304.2860 (a.u.)^3
     number of atoms/cell      =            2
     number of atomic types    =            1
     number of electrons       =         8.00
     number of Kohn-Sham states=            8
     kinetic-energy cutoff     =      50.0000  Ry
     charge density cutoff     =     200.0000  Ry
     convergence threshold     =      1.0E-06
     mixing beta               =       0.7000
     number of iterations used =            8  plain     mixing
     Exchange-correlation      =  SLA  PW   PBX  PBC ( 1  4  3  4 0 0)

     celldm(1)=   1.889726  celldm(2)=   0.000000  celldm(3)=   0.000000
     celldm(4)=   0.000000  celldm(5)=   0.000000  celldm(6)=   0.000000

     crystal axes: (cart. coord. in units of alat)
               a(1) = (   0.000000   2.825000   2.825000 )  
               a(2) = (   2.825000   0.000000   2.825000 )  
               a(3) = (   2.825000   2.825000   0.000000 )  

     reciprocal axes: (cart. coord. in units 2 pi/alat)
               b(1) = ( -0.176991  0.176991  0.176991 )  
               b(2) = (  0.176991 -0.176991  0.176991 )  
               b(3) = (  0.176991  0.176991 -0.176991 )  


     PseudoPot. # 1 for Ge read from file:
     /shared/ESPRESSO/PSLIBRARY/1.0.0/pbe/PSEUDOPOTENTIALS/Ge.pbe-n-kjpaw_psl.1.0.0.UPF
     MD5 check sum: e6063357164f7ec107b9a3d2bf12fbbf
     Pseudo is Projector augmented-wave + core cor, Zval =  4.0
     Generated using "atomic" code by A. Dal Corso  (Quantum ESPRESSO distribution)
     Shape of augmentation charge: PSQ
     Using radial grid of 1207 points,  4 beta functions with: 
                l(1) =   0
                l(2) =   0
                l(3) =   1
                l(4) =   1
     Q(r) pseudized with 0 coefficients 


     atomic species   valence    mass     pseudopotential
        Ge             4.00    72.63000     Ge( 1.00)

     48 Sym. Ops., with inversion, found (24 have fractional translation)



   Cartesian axes

     site n.     atom                  positions (alat units)
         1           Ge  tau(   1) = (   0.0000000   0.0000000   0.0000000  )
         2           Ge  tau(   2) = (   1.4125000   1.4125000   1.4125000  )

     number of k points=    16  Fermi-Dirac smearing, width (Ry)=  0.0070
                       cart. coord. in units 2pi/alat
        k(    1) = (   0.0000000   0.0000000   0.0000000), wk =   0.0092593
        k(    2) = (   0.0294985   0.0294985  -0.0294985), wk =   0.0740741
        k(    3) = (   0.0589971   0.0589971  -0.0589971), wk =   0.0740741
        k(    4) = (  -0.0884956  -0.0884956   0.0884956), wk =   0.0370370
        k(    5) = (   0.0589971   0.0000000   0.0000000), wk =   0.0555556
        k(    6) = (   0.0884956   0.0294985  -0.0294985), wk =   0.2222222
        k(    7) = (  -0.0589971  -0.1179941   0.1179941), wk =   0.2222222
        k(    8) = (  -0.0294985  -0.0884956   0.0884956), wk =   0.2222222
        k(    9) = (   0.0000000  -0.0589971   0.0589971), wk =   0.1111111
        k(   10) = (   0.1179941   0.0000000   0.0000000), wk =   0.0555556
        k(   11) = (  -0.0294985  -0.1474926   0.1474926), wk =   0.2222222
        k(   12) = (   0.0000000  -0.1179941   0.1179941), wk =   0.1111111
        k(   13) = (  -0.1769912   0.0000000   0.0000000), wk =   0.0277778
        k(   14) = (  -0.0589971  -0.1179941   0.1769912), wk =   0.2222222
        k(   15) = (  -0.0294985  -0.0884956   0.1474926), wk =   0.2222222
        k(   16) = (  -0.1769912   0.0589971   0.0000000), wk =   0.1111111

     Dense  grid:    14361 G-vectors     FFT dimensions: (  36,  36,  36)

     Estimated max dynamical RAM per process >       1.62 MB

     Estimated total dynamical RAM >      25.93 MB

     Initial potential from superposition of free atoms

     starting charge    7.99847, renormalised to    8.00000
     Starting wfc are    8 randomized atomic wfcs
     Checking if some PAW data can be deallocated... 

     total cpu time spent up to now is        0.7 secs

     Self-consistent Calculation

     iteration #  1     ecut=    50.00 Ry     beta= 0.70
     Davidson diagonalization with overlap
     ethr =  1.00E-02,  avg # of iterations =  2.9

     Threshold (ethr) on eigenvalues was too large:
     Diagonalizing with lowered threshold

     Davidson diagonalization with overlap
     ethr =  4.12E-04,  avg # of iterations =  1.8

     total cpu time spent up to now is        1.0 secs

     total energy              =    -328.23072612 Ry
     Harris-Foulkes estimate   =    -328.23696838 Ry
     estimated scf accuracy    <       0.03306602 Ry

     iteration #  2     ecut=    50.00 Ry     beta= 0.70
     Davidson diagonalization with overlap
     ethr =  4.13E-04,  avg # of iterations =  1.0

     total cpu time spent up to now is        1.1 secs

     total energy              =    -328.23160044 Ry
     Harris-Foulkes estimate   =    -328.23168348 Ry
     estimated scf accuracy    <       0.00174525 Ry

     iteration #  3     ecut=    50.00 Ry     beta= 0.70
     Davidson diagonalization with overlap
     ethr =  2.18E-05,  avg # of iterations =  1.3

     total cpu time spent up to now is        1.2 secs

     total energy              =    -328.23165433 Ry
     Harris-Foulkes estimate   =    -328.23164956 Ry
     estimated scf accuracy    <       0.00001735 Ry

     iteration #  4     ecut=    50.00 Ry     beta= 0.70
     Davidson diagonalization with overlap
     ethr =  2.17E-07,  avg # of iterations =  2.4

     total cpu time spent up to now is        1.4 secs

     End of self-consistent calculation

          k = 0.0000 0.0000 0.0000 (  1837 PWs)   bands (ev):

    -6.9143   5.8537   5.8537   5.8537   6.0285   8.4298   8.4298   8.4298

          k = 0.0295 0.0295-0.0295 (  1820 PWs)   bands (ev):

    -6.5796   2.6986   5.3349   5.3349   6.8886   9.1303   9.1303  10.1094

          k = 0.0590 0.0590-0.0590 (  1853 PWs)   bands (ev):

    -5.6530  -0.2378   4.6991   4.6991   6.3132   9.6398   9.6398  13.0484

          k =-0.0885-0.0885 0.0885 (  1802 PWs)   bands (ev):

    -4.8401  -1.7451   4.4661   4.4661   6.0768   9.5867   9.5867  13.1603

          k = 0.0590 0.0000 0.0000 (  1832 PWs)   bands (ev):

    -6.4644   2.7022   4.5634   4.5634   7.4441   8.7123  10.3188  10.3188

          k = 0.0885 0.0295-0.0295 (  1831 PWs)   bands (ev):

    -5.7121   0.4379   3.5670   3.9579   7.6420   9.0552  10.8216  11.1899

          k =-0.0590-0.1180 0.1180 (  1807 PWs)   bands (ev):

    -4.6628  -1.5489   2.7345   3.8971   7.4963   9.6889  10.8558  12.3623

          k =-0.0295-0.0885 0.0885 (  1811 PWs)   bands (ev):

    -4.9934  -1.0126   2.5270   4.3850   7.6503   9.9439  10.3330  12.7257

          k = 0.0000-0.0590 0.0590 (  1825 PWs)   bands (ev):

    -6.0363   1.1465   3.3005   5.1692   7.8647   9.4540   9.6774  11.0772

          k = 0.1180 0.0000 0.0000 (  1804 PWs)   bands (ev):

    -5.1413  -0.3441   3.2584   3.2584   6.4922   7.8196  13.2897  13.2897

          k =-0.0295-0.1475 0.1475 (  1807 PWs)   bands (ev):

    -4.0746  -1.8426   2.1106   3.1046   6.8766   8.5391  12.9961  13.5825

          k = 0.0000-0.1180 0.1180 (  1798 PWs)   bands (ev):

    -3.9438  -1.9859   1.3902   3.5537   7.2847  11.7252  12.3856  12.3918

          k =-0.1770 0.0000 0.0000 (  1772 PWs)   bands (ev):

    -3.0386  -3.0386   2.7961   2.7961   6.5681   6.5681  15.5146  15.5146

          k =-0.0590-0.1180 0.1770 (  1818 PWs)   bands (ev):

    -4.8035  -0.9118   2.1536   3.4109   8.6673   9.1240  10.2273  13.0476

          k =-0.0295-0.0885 0.1475 (  1816 PWs)   bands (ev):

    -3.9391  -2.0156   1.6997   2.9729   8.9334   9.4883  12.0367  12.0373

          k =-0.1770 0.0590 0.0000 (  1810 PWs)   bands (ev):

    -2.9663  -2.9663   2.1174   2.1174   8.5710   8.5710  12.5259  12.5259

     the Fermi energy is     5.9199 ev

!    total energy              =    -328.23165845 Ry
     Harris-Foulkes estimate   =    -328.23165830 Ry
     estimated scf accuracy    <       0.00000013 Ry

     total all-electron energy =     -8395.996426 Ry

     The total energy is the sum of the following terms:

     one-electron contribution =       5.57610562 Ry
     hartree contribution      =       1.15447058 Ry
     xc contribution           =     -13.27554507 Ry
     ewald contribution        =     -16.14482554 Ry
     one-center paw contrib.   =    -305.54151810 Ry
     smearing contrib. (-TS)   =      -0.00034594 Ry

     convergence has been achieved in   4 iterations

     Writing output data file scf.save
 
     init_run     :      0.11s CPU      0.12s WALL (       1 calls)
     electrons    :      0.67s CPU      1.37s WALL (       1 calls)

     Called by init_run:
     wfcinit      :      0.04s CPU      0.05s WALL (       1 calls)
     potinit      :      0.03s CPU      0.03s WALL (       1 calls)

     Called by electrons:
     c_bands      :      0.51s CPU      0.52s WALL (       5 calls)
     sum_band     :      0.07s CPU      0.07s WALL (       5 calls)
     v_of_rho     :      0.01s CPU      0.02s WALL (       5 calls)
     newd         :      0.00s CPU      0.01s WALL (       5 calls)
     PAW_pot      :      0.09s CPU      0.10s WALL (       5 calls)
     mix_rho      :      0.00s CPU      0.00s WALL (       5 calls)

     Called by c_bands:
     init_us_2    :      0.01s CPU      0.01s WALL (     176 calls)
     cegterg      :      0.50s CPU      0.51s WALL (      80 calls)

     Called by sum_band:
     sum_band:bec :      0.00s CPU      0.00s WALL (      80 calls)
     addusdens    :      0.00s CPU      0.01s WALL (       5 calls)

     Called by *egterg:
     h_psi        :      0.27s CPU      0.28s WALL (     246 calls)
     s_psi        :      0.01s CPU      0.00s WALL (     246 calls)
     g_psi        :      0.00s CPU      0.00s WALL (     150 calls)
     cdiaghg      :      0.20s CPU      0.21s WALL (     214 calls)

     Called by h_psi:
     h_psi:pot    :      0.27s CPU      0.28s WALL (     246 calls)
     h_psi:calbec :      0.01s CPU      0.01s WALL (     246 calls)
     vloc_psi     :      0.26s CPU      0.26s WALL (     246 calls)
     add_vuspsi   :      0.00s CPU      0.00s WALL (     246 calls)

     General routines
     calbec       :      0.01s CPU      0.02s WALL (     326 calls)
     fft          :      0.01s CPU      0.01s WALL (      67 calls)
     fftw         :      0.27s CPU      0.29s WALL (    3850 calls)
     davcio       :      0.00s CPU      0.00s WALL (      16 calls)
 
     Parallel routines
     fft_scatt_xy :      0.02s CPU      0.02s WALL (    3917 calls)
     fft_scatt_yz :      0.12s CPU      0.14s WALL (    3917 calls)
 
     PWSCF        :  0m 1.08s CPU     4m 7.87s WALL

 
   This run was terminated on:   5:39:30  10Jun2020            

=------------------------------------------------------------------------------=
   JOB DONE.
=------------------------------------------------------------------------------=
