
     Program PWSCF v.6.2 starts on 10Jun2020 at  5:39:37 

     This program is part of the open-source Quantum ESPRESSO suite
     for quantum simulation of materials; please cite
         "P. Giannozzi et al., J. Phys.:Condens. Matter 21 395502 (2009);
         "P. Giannozzi et al., J. Phys.:Condens. Matter 29 465901 (2017);
          URL http://www.quantum-espresso.org", 
     in publications or presentations arising from this work. More details at
     http://www.quantum-espresso.org/quote

     Parallel version (MPI), running on    16 processors

     MPI processes distributed on     1 nodes
     R & G space division:  proc/nbgrp/npool/nimage =      16
     Waiting for input...
     Reading input from standard input
     Message from routine read_cards :
     DEPRECATED: no units specified in CELL_PARAMETERS card

     Current dimensions of program PWSCF are:
     Max number of different atomic species (ntypx) = 10
     Max number of k-points (npk) =  40000
     Max angular momentum in pseudopotentials (lmaxx) =  3

     Subspace diagonalization in iterative solution of the eigenvalue problem:
     one sub-group per band group will be used
     scalapack distributed-memory algorithm (size of sub-group:  2*  2 procs)

 
     Parallelization info
     --------------------
     sticks:   dense  smooth     PW     G-vecs:    dense   smooth      PW
     Min          48      48     15                  897      897     152
     Max          49      49     16                  901      901     155
     Sum         769     769    241                14361    14361    2445
 


     bravais-lattice index     =            0
     lattice parameter (alat)  =       1.8897  a.u.
     unit-cell volume          =     304.2860 (a.u.)^3
     number of atoms/cell      =            2
     number of atomic types    =            1
     number of electrons       =         8.00
     number of Kohn-Sham states=            8
     kinetic-energy cutoff     =      50.0000  Ry
     charge density cutoff     =     200.0000  Ry
     convergence threshold     =      1.0E-06
     mixing beta               =       0.7000
     number of iterations used =            8  plain     mixing
     Exchange-correlation      =  SLA  PW   PBX  PBC ( 1  4  3  4 0 0)

     celldm(1)=   1.889726  celldm(2)=   0.000000  celldm(3)=   0.000000
     celldm(4)=   0.000000  celldm(5)=   0.000000  celldm(6)=   0.000000

     crystal axes: (cart. coord. in units of alat)
               a(1) = (   0.000000   2.825000   2.825000 )  
               a(2) = (   2.825000   0.000000   2.825000 )  
               a(3) = (   2.825000   2.825000   0.000000 )  

     reciprocal axes: (cart. coord. in units 2 pi/alat)
               b(1) = ( -0.176991  0.176991  0.176991 )  
               b(2) = (  0.176991 -0.176991  0.176991 )  
               b(3) = (  0.176991  0.176991 -0.176991 )  


     PseudoPot. # 1 for Ge read from file:
     /shared/ESPRESSO/PSLIBRARY/1.0.0/pbe/PSEUDOPOTENTIALS/Ge.pbe-n-kjpaw_psl.1.0.0.UPF
     MD5 check sum: e6063357164f7ec107b9a3d2bf12fbbf
     Pseudo is Projector augmented-wave + core cor, Zval =  4.0
     Generated using "atomic" code by A. Dal Corso  (Quantum ESPRESSO distribution)
     Shape of augmentation charge: PSQ
     Using radial grid of 1207 points,  4 beta functions with: 
                l(1) =   0
                l(2) =   0
                l(3) =   1
                l(4) =   1
     Q(r) pseudized with 0 coefficients 


     atomic species   valence    mass     pseudopotential
        Ge             4.00    72.63000     Ge( 1.00)

     48 Sym. Ops., with inversion, found (24 have fractional translation)



   Cartesian axes

     site n.     atom                  positions (alat units)
         1           Ge  tau(   1) = (   0.0000000   0.0000000   0.0000000  )
         2           Ge  tau(   2) = (   1.4125000   1.4125000   1.4125000  )

     number of k points=    35  Fermi-Dirac smearing, width (Ry)=  0.0070
                       cart. coord. in units 2pi/alat
        k(    1) = (   0.0000000   0.0000000   0.0000000), wk =   0.0027435
        k(    2) = (   0.0196657   0.0196657  -0.0196657), wk =   0.0219479
        k(    3) = (   0.0393314   0.0393314  -0.0393314), wk =   0.0219479
        k(    4) = (   0.0589971   0.0589971  -0.0589971), wk =   0.0219479
        k(    5) = (   0.0786627   0.0786627  -0.0786627), wk =   0.0219479
        k(    6) = (   0.0393314   0.0000000   0.0000000), wk =   0.0164609
        k(    7) = (   0.0589971   0.0196657  -0.0196657), wk =   0.0658436
        k(    8) = (   0.0786627   0.0393314  -0.0393314), wk =   0.0658436
        k(    9) = (   0.0983284   0.0589971  -0.0589971), wk =   0.0658436
        k(   10) = (  -0.0589971  -0.0983284   0.0983284), wk =   0.0658436
        k(   11) = (  -0.0393314  -0.0786627   0.0786627), wk =   0.0658436
        k(   12) = (  -0.0196657  -0.0589971   0.0589971), wk =   0.0658436
        k(   13) = (   0.0000000  -0.0393314   0.0393314), wk =   0.0329218
        k(   14) = (   0.0786627   0.0000000   0.0000000), wk =   0.0164609
        k(   15) = (   0.0983284   0.0196657  -0.0196657), wk =   0.0658436
        k(   16) = (   0.1179941   0.0393314  -0.0393314), wk =   0.0658436
        k(   17) = (  -0.0393314  -0.1179941   0.1179941), wk =   0.0658436
        k(   18) = (  -0.0196657  -0.0983284   0.0983284), wk =   0.0658436
        k(   19) = (   0.0000000  -0.0786627   0.0786627), wk =   0.0329218
        k(   20) = (   0.1179941   0.0000000   0.0000000), wk =   0.0164609
        k(   21) = (   0.1376598   0.0196657  -0.0196657), wk =   0.0658436
        k(   22) = (  -0.0196657  -0.1376598   0.1376598), wk =   0.0658436
        k(   23) = (   0.0000000  -0.1179941   0.1179941), wk =   0.0329218
        k(   24) = (   0.1573255   0.0000000   0.0000000), wk =   0.0164609
        k(   25) = (   0.0000000  -0.1573255   0.1573255), wk =   0.0329218
        k(   26) = (   0.0786627   0.0393314   0.0000000), wk =   0.0658436
        k(   27) = (   0.0983284   0.0589971  -0.0196657), wk =   0.1316872
        k(   28) = (  -0.0589971  -0.0983284   0.1376598), wk =   0.1316872
        k(   29) = (   0.1179941   0.0393314   0.0000000), wk =   0.0658436
        k(   30) = (  -0.0393314  -0.1179941   0.1573255), wk =   0.1316872
        k(   31) = (  -0.0196657  -0.0983284   0.1376598), wk =   0.1316872
        k(   32) = (   0.0000000  -0.0786627   0.1179941), wk =   0.0658436
        k(   33) = (  -0.0196657  -0.1376598   0.1769912), wk =   0.0658436
        k(   34) = (   0.0000000  -0.1179941   0.1573255), wk =   0.0658436
        k(   35) = (  -0.0196657  -0.0983284   0.1769912), wk =   0.0658436

     Dense  grid:    14361 G-vectors     FFT dimensions: (  36,  36,  36)

     Estimated max dynamical RAM per process >       1.88 MB

     Estimated total dynamical RAM >      30.12 MB

     Initial potential from superposition of free atoms

     starting charge    7.99847, renormalised to    8.00000
     Starting wfc are    8 randomized atomic wfcs
     Checking if some PAW data can be deallocated... 

     total cpu time spent up to now is        0.8 secs

     Self-consistent Calculation

     iteration #  1     ecut=    50.00 Ry     beta= 0.70
     Davidson diagonalization with overlap
     ethr =  1.00E-02,  avg # of iterations =  3.0

     Threshold (ethr) on eigenvalues was too large:
     Diagonalizing with lowered threshold

     Davidson diagonalization with overlap
     ethr =  4.00E-04,  avg # of iterations =  1.8

     total cpu time spent up to now is        1.4 secs

     total energy              =    -328.23358844 Ry
     Harris-Foulkes estimate   =    -328.23963517 Ry
     estimated scf accuracy    <       0.03210955 Ry

     iteration #  2     ecut=    50.00 Ry     beta= 0.70
     Davidson diagonalization with overlap
     ethr =  4.01E-04,  avg # of iterations =  1.0

     total cpu time spent up to now is        1.6 secs

     total energy              =    -328.23442738 Ry
     Harris-Foulkes estimate   =    -328.23451351 Ry
     estimated scf accuracy    <       0.00167845 Ry

     iteration #  3     ecut=    50.00 Ry     beta= 0.70
     Davidson diagonalization with overlap
     ethr =  2.10E-05,  avg # of iterations =  1.9

     total cpu time spent up to now is        1.9 secs

     total energy              =    -328.23447630 Ry
     Harris-Foulkes estimate   =    -328.23447208 Ry
     estimated scf accuracy    <       0.00001713 Ry

     iteration #  4     ecut=    50.00 Ry     beta= 0.70
     Davidson diagonalization with overlap
     ethr =  2.14E-07,  avg # of iterations =  2.4

     total cpu time spent up to now is        2.2 secs

     End of self-consistent calculation

          k = 0.0000 0.0000 0.0000 (  1837 PWs)   bands (ev):

    -6.9216   5.8455   5.8455   5.8455   6.0195   8.4251   8.4251   8.4251

          k = 0.0197 0.0197-0.0197 (  1835 PWs)   bands (ev):

    -6.7718   3.7900   5.5713   5.5713   6.9746   8.7995   8.7995   9.1970

          k = 0.0393 0.0393-0.0393 (  1832 PWs)   bands (ev):

    -6.3335   1.6340   5.0838   5.0838   6.6838   9.4071   9.4071  11.0993

          k = 0.0590 0.0590-0.0590 (  1853 PWs)   bands (ev):

    -5.6605  -0.2452   4.6917   4.6917   6.3061   9.6350   9.6350  13.0402

          k = 0.0787 0.0787-0.0787 (  1823 PWs)   bands (ev):

    -4.9782  -1.5442   4.4850   4.4850   6.0964   9.5951   9.5951  13.1894

          k = 0.0393 0.0000 0.0000 (  1832 PWs)   bands (ev):

    -6.7212   3.7578   5.1083   5.1083   7.8801   7.9941   9.4317   9.4317

          k = 0.0590 0.0197-0.0197 (  1824 PWs)   bands (ev):

    -6.3763   2.1223   4.5846   4.5909   7.8253   8.3944  10.2037  10.6034

          k = 0.0787 0.0393-0.0393 (  1835 PWs)   bands (ev):

    -5.7704   0.2832   3.9876   4.2442   7.5200   9.0448  10.5024  11.3937

          k = 0.0983 0.0590-0.0590 (  1813 PWs)   bands (ev):

    -5.0388  -1.2086   3.5223   4.1332   7.2347   9.3184  10.3214  12.6931

          k =-0.0590-0.0983 0.0983 (  1815 PWs)   bands (ev):

    -4.7267  -1.7133   3.2756   4.2641   7.1365   9.4741  10.0602  13.6246

          k =-0.0393-0.0787 0.0787 (  1823 PWs)   bands (ev):

    -5.2812  -0.7692   3.2882   4.6106   7.2420   9.7298   9.8364  12.8556

          k =-0.0197-0.0590 0.0590 (  1836 PWs)   bands (ev):

    -6.0001   0.8712   3.6076   5.1025   7.4978   9.4506   9.7378  11.4157

          k = 0.0000-0.0393 0.0393 (  1827 PWs)   bands (ev):

    -6.5247   2.6156   4.3739   5.5539   7.5713   8.8823   9.0317  10.4669

          k = 0.0787 0.0000 0.0000 (  1820 PWs)   bands (ev):

    -6.1248   1.6514   4.0436   4.0436   7.0324   8.8192  11.2746  11.2746

          k = 0.0983 0.0197-0.0197 (  1818 PWs)   bands (ev):

    -5.5978   0.3742   3.3461   3.6728   7.2117   8.7162  11.3364  11.9349

          k = 0.1180 0.0393-0.0393 (  1806 PWs)   bands (ev):

    -4.8739  -0.9810   2.5597   3.5548   7.3646   9.7469  11.0483  11.8567

          k =-0.0393-0.1180 0.1180 (  1813 PWs)   bands (ev):

    -4.3185  -1.8032   2.0407   3.7035   7.4304  10.4757  11.4656  12.1044

          k =-0.0197-0.0983 0.0983 (  1815 PWs)   bands (ev):

    -4.6714  -1.2976   1.9115   4.0931   7.6730  10.5741  10.9828  12.6202

          k = 0.0000-0.0787 0.0787 (  1825 PWs)   bands (ev):

    -5.4066  -0.1306   2.3522   4.6371   7.9329  10.2334  10.5243  11.1230

          k = 0.1180 0.0000 0.0000 (  1804 PWs)   bands (ev):

    -5.1488  -0.3522   3.2518   3.2518   6.4862   7.8137  13.2832  13.2832

          k = 0.1377 0.0197-0.0197 (  1805 PWs)   bands (ev):

    -4.4654  -1.3726   2.5574   3.0804   6.7693   7.8625  13.1970  13.7136

          k =-0.0197-0.1377 0.1377 (  1814 PWs)   bands (ev):

    -3.7651  -2.2071   1.7202   3.1844   6.9576   9.4781  12.8047  13.3093

          k = 0.0000-0.1180 0.1180 (  1798 PWs)   bands (ev):

    -3.9515  -1.9937   1.3841   3.5470   7.2788  11.7191  12.3787  12.3867

          k = 0.1573 0.0000 0.0000 (  1796 PWs)   bands (ev):

    -3.8242  -2.2020   2.8415   2.8415   6.4061   6.8540  15.1144  15.1144

          k = 0.0000-0.1573 0.1573 (  1806 PWs)   bands (ev):

    -3.1235  -2.9293   2.2927   2.8780   6.6493   7.4695  14.7417  14.8951

          k = 0.0787 0.0393 0.0000 (  1828 PWs)   bands (ev):

    -5.9419   1.0054   3.3340   4.4964   8.1595   8.5944  10.6709  10.9795

          k = 0.0983 0.0590-0.0197 (  1819 PWs)   bands (ev):

    -5.2709  -0.4124   2.6409   4.0669   8.2228   9.1739  10.6997  11.5979

          k =-0.0590-0.0983 0.1377 (  1815 PWs)   bands (ev):

    -4.5764  -1.5699   2.3712   3.7589   8.0873   9.2610  11.2894  12.5534

          k = 0.1180 0.0393 0.0000 (  1810 PWs)   bands (ev):

    -4.9958  -0.6236   2.6127   3.3040   7.6011   8.5290  11.2395  13.1736

          k =-0.0393-0.1180 0.1573 (  1817 PWs)   bands (ev):

    -4.2513  -1.6504   1.9602   3.0162   7.9872   9.6915  10.7801  13.4183

          k =-0.0197-0.0983 0.1377 (  1815 PWs)   bands (ev):

    -3.9480  -2.0160   1.5994   3.1202   8.2191  10.3341  11.9049  12.1852

          k = 0.0000-0.0787 0.1180 (  1807 PWs)   bands (ev):

    -4.5656  -1.2691   1.7576   3.5439   8.5794   9.8804  10.6244  12.8645

          k =-0.0197-0.1377 0.1770 (  1809 PWs)   bands (ev):

    -3.7331  -2.2365   2.3350   2.5566   7.4536   7.7820  12.9965  14.5437

          k = 0.0000-0.1180 0.1573 (  1813 PWs)   bands (ev):

    -3.2925  -2.6585   1.6984   2.6379   7.8093   9.5075  12.4928  12.5868

          k =-0.0197-0.0983 0.1770 (  1806 PWs)   bands (ev):

    -3.5139  -2.3872   1.7255   2.3514   9.7062   9.7949  10.3073  12.1245

     the Fermi energy is     5.9221 ev

!    total energy              =    -328.23447966 Ry
     Harris-Foulkes estimate   =    -328.23447950 Ry
     estimated scf accuracy    <       0.00000012 Ry

     total all-electron energy =     -8395.999247 Ry

     The total energy is the sum of the following terms:

     one-electron contribution =       5.57616835 Ry
     hartree contribution      =       1.14965441 Ry
     xc contribution           =     -13.27365138 Ry
     ewald contribution        =     -16.14482554 Ry
     one-center paw contrib.   =    -305.54163460 Ry
     smearing contrib. (-TS)   =      -0.00019090 Ry

     convergence has been achieved in   4 iterations

     Writing output data file scf.save
 
     init_run     :      0.42s CPU      0.50s WALL (       1 calls)
     electrons    :      3.30s CPU      4.16s WALL (       1 calls)

     Called by init_run:
     wfcinit      :      0.20s CPU      0.23s WALL (       1 calls)
     potinit      :      0.08s CPU      0.12s WALL (       1 calls)

     Called by electrons:
     c_bands      :      2.64s CPU      2.86s WALL (       5 calls)
     sum_band     :      0.37s CPU      0.38s WALL (       5 calls)
     v_of_rho     :      0.04s CPU      0.04s WALL (       5 calls)
     newd         :      0.01s CPU      0.02s WALL (       5 calls)
     PAW_pot      :      0.29s CPU      0.34s WALL (       5 calls)
     mix_rho      :      0.00s CPU      0.00s WALL (       5 calls)

     Called by c_bands:
     init_us_2    :      0.02s CPU      0.03s WALL (     385 calls)
     cegterg      :      2.57s CPU      2.77s WALL (     175 calls)

     Called by sum_band:
     sum_band:bec :      0.00s CPU      0.00s WALL (     175 calls)
     addusdens    :      0.01s CPU      0.01s WALL (       5 calls)

     Called by *egterg:
     h_psi        :      1.52s CPU      1.59s WALL (     564 calls)
     s_psi        :      0.03s CPU      0.05s WALL (     564 calls)
     g_psi        :      0.01s CPU      0.01s WALL (     354 calls)
     cdiaghg      :      0.84s CPU      0.92s WALL (     494 calls)

     Called by h_psi:
     h_psi:pot    :      1.51s CPU      1.58s WALL (     564 calls)
     h_psi:calbec :      0.07s CPU      0.09s WALL (     564 calls)
     vloc_psi     :      1.41s CPU      1.44s WALL (     564 calls)
     add_vuspsi   :      0.03s CPU      0.05s WALL (     564 calls)

     General routines
     calbec       :      0.09s CPU      0.12s WALL (     739 calls)
     fft          :      0.02s CPU      0.03s WALL (      67 calls)
     fftw         :      1.60s CPU      1.63s WALL (    8452 calls)
     davcio       :      0.00s CPU      0.00s WALL (      35 calls)
 
     Parallel routines
     fft_scatt_xy :      0.08s CPU      0.10s WALL (    8519 calls)
     fft_scatt_yz :      1.01s CPU      1.02s WALL (    8519 calls)
 
     PWSCF        :  0m 4.25s CPU     4m23.43s WALL

 
   This run was terminated on:   5:43:18  10Jun2020            

=------------------------------------------------------------------------------=
   JOB DONE.
=------------------------------------------------------------------------------=
