
     Program BANDS v.6.2 starts on 10Sep2020 at  0:44:39 

     This program is part of the open-source Quantum ESPRESSO suite
     for quantum simulation of materials; please cite
         "P. Giannozzi et al., J. Phys.:Condens. Matter 21 395502 (2009);
         "P. Giannozzi et al., J. Phys.:Condens. Matter 29 465901 (2017);
          URL http://www.quantum-espresso.org", 
     in publications or presentations arising from this work. More details at
     http://www.quantum-espresso.org/quote

     Parallel version (MPI), running on    32 processors

     MPI processes distributed on     2 nodes
     R & G space division:  proc/nbgrp/npool/nimage =      32

     Reading data from directory:
     /home/theodoros/PROJ_TUTORIALS/theodoros/Ge_bulk/bands/SCF/tmp/scf.save/

     IMPORTANT: XC functional enforced from input :
     Exchange-correlation      = PBE ( 1  4  3  4 0 0)
     Any further DFT definition will be discarded
     Please, verify this is what you really want

 
     Parallelization info
     --------------------
     sticks:   dense  smooth     PW     G-vecs:    dense   smooth      PW
     Min          17      17      5                  268      268      43
     Max          18      18      6                  272      272      46
     Sum         559     559    163                 8609     8609    1411
 
     high-symmetry point:  0.0884 0.0884 0.0884   x coordinate   0.0000
     high-symmetry point:  0.0000 0.0000 0.0000   x coordinate   0.1531
     high-symmetry point:  0.1767 0.0000 0.0000   x coordinate   0.3298

     Plottable bands (eV) written to file bands.dat.gnu
     Bands written to file bands.dat

 **************************************************************************

                    xk=(   0.08837,   0.08837,   0.08837  )

     point group C_3v (3m)  
     there are  3 classes
     the character table:

       E     2C3   3s_v 
A_1    1.00  1.00  1.00
A_2    1.00  1.00 -1.00
E      2.00 -1.00  0.00

     the symmetry operations in each class and the name of the first element:

     E        1
                                                                 
     2C3      2    3
                                                                 
     3s_v     4    5    6
                                                                 

     Band symmetry, C_3v (3m)   point group:

     e(  1 -  1) =     -4.87050  eV     1   --> A_1  L_1       
     e(  2 -  2) =     -1.77725  eV     1   --> A_1  L_1       
     e(  3 -  4) =      4.42032  eV     2   --> E    L_3       
     e(  5 -  5) =      6.01194  eV     1   --> A_1  L_1       
     e(  6 -  7) =      9.53568  eV     2   --> E    L_3       
     e(  8 -  8) =     13.10611  eV     1   --> A_1  L_1       

 **************************************************************************

 **************************************************************************

                    xk=(   0.08805,   0.08805,   0.08805  )

     Band symmetry, C_3v (3m)   point group:

     e(  1 -  1) =     -4.87065  eV     1   --> A_1  L_1       
     e(  2 -  2) =     -1.77701  eV     1   --> A_1  L_1       
     e(  3 -  4) =      4.42035  eV     2   --> E    L_3       
     e(  5 -  5) =      6.01197  eV     1   --> A_1  L_1       
     e(  6 -  7) =      9.53569  eV     2   --> E    L_3       
     e(  8 -  8) =     13.10615  eV     1   --> A_1  L_1       

 **************************************************************************

 **************************************************************************

                    xk=(   0.08773,   0.08773,   0.08773  )

     Band symmetry, C_3v (3m)   point group:

     e(  1 -  1) =     -4.87110  eV     1   --> A_1  L_1       
     e(  2 -  2) =     -1.77632  eV     1   --> A_1  L_1       
     e(  3 -  4) =      4.42043  eV     2   --> E    L_3       
     e(  5 -  5) =      6.01205  eV     1   --> A_1  L_1       
     e(  6 -  7) =      9.53574  eV     2   --> E    L_3       
     e(  8 -  8) =     13.10627  eV     1   --> A_1  L_1       

 **************************************************************************

 **************************************************************************

                    xk=(   0.08741,   0.08741,   0.08741  )

     Band symmetry, C_3v (3m)   point group:

     e(  1 -  1) =     -4.87184  eV     1   --> A_1  L_1       
     e(  2 -  2) =     -1.77516  eV     1   --> A_1  L_1       
     e(  3 -  4) =      4.42057  eV     2   --> E    L_3       
     e(  5 -  5) =      6.01220  eV     1   --> A_1  L_1       
     e(  6 -  7) =      9.53581  eV     2   --> E    L_3       
     e(  8 -  8) =     13.10647  eV     1   --> A_1  L_1       

 **************************************************************************

 **************************************************************************

                    xk=(   0.08709,   0.08709,   0.08709  )

     Band symmetry, C_3v (3m)   point group:

     e(  1 -  1) =     -4.87288  eV     1   --> A_1  L_1       
     e(  2 -  2) =     -1.77355  eV     1   --> A_1  L_1       
     e(  3 -  4) =      4.42077  eV     2   --> E    L_3       
     e(  5 -  5) =      6.01240  eV     1   --> A_1  L_1       
     e(  6 -  7) =      9.53591  eV     2   --> E    L_3       
     e(  8 -  8) =     13.10675  eV     1   --> A_1  L_1       

 **************************************************************************

 **************************************************************************

                    xk=(   0.08676,   0.08676,   0.08676  )

     Band symmetry, C_3v (3m)   point group:

     e(  1 -  1) =     -4.87421  eV     1   --> A_1  L_1       
     e(  2 -  2) =     -1.77147  eV     1   --> A_1  L_1       
     e(  3 -  4) =      4.42102  eV     2   --> E    L_3       
     e(  5 -  5) =      6.01266  eV     1   --> A_1  L_1       
     e(  6 -  7) =      9.53604  eV     2   --> E    L_3       
     e(  8 -  8) =     13.10712  eV     1   --> A_1  L_1       

 **************************************************************************

 **************************************************************************

                    xk=(   0.08644,   0.08644,   0.08644  )

     Band symmetry, C_3v (3m)   point group:

     e(  1 -  1) =     -4.87584  eV     1   --> A_1  L_1       
     e(  2 -  2) =     -1.76893  eV     1   --> A_1  L_1       
     e(  3 -  4) =      4.42133  eV     2   --> E    L_3       
     e(  5 -  5) =      6.01297  eV     1   --> A_1  L_1       
     e(  6 -  7) =      9.53620  eV     2   --> E    L_3       
     e(  8 -  8) =     13.10756  eV     1   --> A_1  L_1       

 **************************************************************************

 **************************************************************************

                    xk=(   0.08612,   0.08612,   0.08612  )

     Band symmetry, C_3v (3m)   point group:

     e(  1 -  1) =     -4.87776  eV     1   --> A_1  L_1       
     e(  2 -  2) =     -1.76593  eV     1   --> A_1  L_1       
     e(  3 -  4) =      4.42169  eV     2   --> E    L_3       
     e(  5 -  5) =      6.01334  eV     1   --> A_1  L_1       
     e(  6 -  7) =      9.53638  eV     2   --> E    L_3       
     e(  8 -  8) =     13.10808  eV     1   --> A_1  L_1       

 **************************************************************************

 **************************************************************************

                    xk=(   0.08580,   0.08580,   0.08580  )

     Band symmetry, C_3v (3m)   point group:

     e(  1 -  1) =     -4.87997  eV     1   --> A_1  L_1       
     e(  2 -  2) =     -1.76248  eV     1   --> A_1  L_1       
     e(  3 -  4) =      4.42211  eV     2   --> E    L_3       
     e(  5 -  5) =      6.01378  eV     1   --> A_1  L_1       
     e(  6 -  7) =      9.53660  eV     2   --> E    L_3       
     e(  8 -  8) =     13.10869  eV     1   --> A_1  L_1       

 **************************************************************************

 **************************************************************************

                    xk=(   0.08548,   0.08548,   0.08548  )

     Band symmetry, C_3v (3m)   point group:

     e(  1 -  1) =     -4.88246  eV     1   --> A_1  L_1       
     e(  2 -  2) =     -1.75857  eV     1   --> A_1  L_1       
     e(  3 -  4) =      4.42259  eV     2   --> E    L_3       
     e(  5 -  5) =      6.01426  eV     1   --> A_1  L_1       
     e(  6 -  7) =      9.53684  eV     2   --> E    L_3       
     e(  8 -  8) =     13.10937  eV     1   --> A_1  L_1       

 **************************************************************************

 **************************************************************************

                    xk=(   0.08516,   0.08516,   0.08516  )

     Band symmetry, C_3v (3m)   point group:

     e(  1 -  1) =     -4.88525  eV     1   --> A_1  L_1       
     e(  2 -  2) =     -1.75421  eV     1   --> A_1  L_1       
     e(  3 -  4) =      4.42312  eV     2   --> E    L_3       
     e(  5 -  5) =      6.01481  eV     1   --> A_1  L_1       
     e(  6 -  7) =      9.53712  eV     2   --> E    L_3       
     e(  8 -  8) =     13.11013  eV     1   --> A_1  L_1       

 **************************************************************************

 **************************************************************************

                    xk=(   0.08484,   0.08484,   0.08484  )

     Band symmetry, C_3v (3m)   point group:

     e(  1 -  1) =     -4.88832  eV     1   --> A_1  L_1       
     e(  2 -  2) =     -1.74941  eV     1   --> A_1  L_1       
     e(  3 -  4) =      4.42371  eV     2   --> E    L_3       
     e(  5 -  5) =      6.01541  eV     1   --> A_1  L_1       
     e(  6 -  7) =      9.53741  eV     2   --> E    L_3       
     e(  8 -  8) =     13.11097  eV     1   --> A_1  L_1       

 **************************************************************************

 **************************************************************************

                    xk=(   0.08451,   0.08451,   0.08451  )

     Band symmetry, C_3v (3m)   point group:

     e(  1 -  1) =     -4.89166  eV     1   --> A_1  L_1       
     e(  2 -  2) =     -1.74415  eV     1   --> A_1  L_1       
     e(  3 -  4) =      4.42435  eV     2   --> E    L_3       
     e(  5 -  5) =      6.01607  eV     1   --> A_1  L_1       
     e(  6 -  7) =      9.53774  eV     2   --> E    L_3       
     e(  8 -  8) =     13.11189  eV     1   --> A_1  L_1       

 **************************************************************************

 **************************************************************************

                    xk=(   0.08419,   0.08419,   0.08419  )

     Band symmetry, C_3v (3m)   point group:

     e(  1 -  1) =     -4.89529  eV     1   --> A_1  L_1       
     e(  2 -  2) =     -1.73845  eV     1   --> A_1  L_1       
     e(  3 -  4) =      4.42505  eV     2   --> E    L_3       
     e(  5 -  5) =      6.01679  eV     1   --> A_1  L_1       
     e(  6 -  7) =      9.53810  eV     2   --> E    L_3       
     e(  8 -  8) =     13.11289  eV     1   --> A_1  L_1       

 **************************************************************************

 **************************************************************************

                    xk=(   0.08387,   0.08387,   0.08387  )

     Band symmetry, C_3v (3m)   point group:

     e(  1 -  1) =     -4.89919  eV     1   --> A_1  L_1       
     e(  2 -  2) =     -1.73232  eV     1   --> A_1  L_1       
     e(  3 -  4) =      4.42580  eV     2   --> E    L_3       
     e(  5 -  5) =      6.01756  eV     1   --> A_1  L_1       
     e(  6 -  7) =      9.53848  eV     2   --> E    L_3       
     e(  8 -  8) =     13.11396  eV     1   --> A_1  L_1       

 **************************************************************************

 **************************************************************************

                    xk=(   0.08355,   0.08355,   0.08355  )

     Band symmetry, C_3v (3m)   point group:

     e(  1 -  1) =     -4.90336  eV     1   --> A_1  L_1       
     e(  2 -  2) =     -1.72574  eV     1   --> A_1  L_1       
     e(  3 -  4) =      4.42661  eV     2   --> E    L_3       
     e(  5 -  5) =      6.01840  eV     1   --> A_1  L_1       
     e(  6 -  7) =      9.53889  eV     2   --> E    L_3       
     e(  8 -  8) =     13.11511  eV     1   --> A_1  L_1       

 **************************************************************************

 **************************************************************************

                    xk=(   0.08323,   0.08323,   0.08323  )

     Band symmetry, C_3v (3m)   point group:

     e(  1 -  1) =     -4.90780  eV     1   --> A_1  L_1       
     e(  2 -  2) =     -1.71874  eV     1   --> A_1  L_1       
     e(  3 -  4) =      4.42748  eV     2   --> E    L_3       
     e(  5 -  5) =      6.01928  eV     1   --> A_1  L_1       
     e(  6 -  7) =      9.53932  eV     2   --> E    L_3       
     e(  8 -  8) =     13.11634  eV     1   --> A_1  L_1       

 **************************************************************************

 **************************************************************************

                    xk=(   0.08291,   0.08291,   0.08291  )

     Band symmetry, C_3v (3m)   point group:

     e(  1 -  1) =     -4.91250  eV     1   --> A_1  L_1       
     e(  2 -  2) =     -1.71130  eV     1   --> A_1  L_1       
     e(  3 -  4) =      4.42840  eV     2   --> E    L_3       
     e(  5 -  5) =      6.02023  eV     1   --> A_1  L_1       
     e(  6 -  7) =      9.53978  eV     2   --> E    L_3       
     e(  8 -  8) =     13.11764  eV     1   --> A_1  L_1       

 **************************************************************************

 **************************************************************************

                    xk=(   0.08259,   0.08259,   0.08259  )

     Band symmetry, C_3v (3m)   point group:

     e(  1 -  1) =     -4.91747  eV     1   --> A_1  L_1       
     e(  2 -  2) =     -1.70344  eV     1   --> A_1  L_1       
     e(  3 -  4) =      4.42938  eV     2   --> E    L_3       
     e(  5 -  5) =      6.02123  eV     1   --> A_1  L_1       
     e(  6 -  7) =      9.54027  eV     2   --> E    L_3       
     e(  8 -  8) =     13.11902  eV     1   --> A_1  L_1       

 **************************************************************************

 **************************************************************************

                    xk=(   0.08226,   0.08226,   0.08226  )

     Band symmetry, C_3v (3m)   point group:

     e(  1 -  1) =     -4.92268  eV     1   --> A_1  L_1       
     e(  2 -  2) =     -1.69516  eV     1   --> A_1  L_1       
     e(  3 -  4) =      4.43042  eV     2   --> E    L_3       
     e(  5 -  5) =      6.02230  eV     1   --> A_1  L_1       
     e(  6 -  7) =      9.54078  eV     2   --> E    L_3       
     e(  8 -  8) =     13.12047  eV     1   --> A_1  L_1       

 **************************************************************************

 **************************************************************************

                    xk=(   0.08194,   0.08194,   0.08194  )

     Band symmetry, C_3v (3m)   point group:

     e(  1 -  1) =     -4.92815  eV     1   --> A_1  L_1       
     e(  2 -  2) =     -1.68646  eV     1   --> A_1  L_1       
     e(  3 -  4) =      4.43151  eV     2   --> E    L_3       
     e(  5 -  5) =      6.02341  eV     1   --> A_1  L_1       
     e(  6 -  7) =      9.54131  eV     2   --> E    L_3       
     e(  8 -  8) =     13.12199  eV     1   --> A_1  L_1       

 **************************************************************************

 **************************************************************************

                    xk=(   0.08162,   0.08162,   0.08162  )

     Band symmetry, C_3v (3m)   point group:

     e(  1 -  1) =     -4.93387  eV     1   --> A_1  L_1       
     e(  2 -  2) =     -1.67735  eV     1   --> A_1  L_1       
     e(  3 -  4) =      4.43265  eV     2   --> E    L_3       
     e(  5 -  5) =      6.02459  eV     1   --> A_1  L_1       
     e(  6 -  7) =      9.54187  eV     2   --> E    L_3       
     e(  8 -  8) =     13.12359  eV     1   --> A_1  L_1       

 **************************************************************************

 **************************************************************************

                    xk=(   0.08130,   0.08130,   0.08130  )

     Band symmetry, C_3v (3m)   point group:

     e(  1 -  1) =     -4.93983  eV     1   --> A_1  L_1       
     e(  2 -  2) =     -1.66783  eV     1   --> A_1  L_1       
     e(  3 -  4) =      4.43385  eV     2   --> E    L_3       
     e(  5 -  5) =      6.02582  eV     1   --> A_1  L_1       
     e(  6 -  7) =      9.54246  eV     2   --> E    L_3       
     e(  8 -  8) =     13.12526  eV     1   --> A_1  L_1       

 **************************************************************************

 **************************************************************************

                    xk=(   0.08098,   0.08098,   0.08098  )

     Band symmetry, C_3v (3m)   point group:

     e(  1 -  1) =     -4.94602  eV     1   --> A_1  L_1       
     e(  2 -  2) =     -1.65791  eV     1   --> A_1  L_1       
     e(  3 -  4) =      4.43511  eV     2   --> E    L_3       
     e(  5 -  5) =      6.02711  eV     1   --> A_1  L_1       
     e(  6 -  7) =      9.54306  eV     2   --> E    L_3       
     e(  8 -  8) =     13.12699  eV     1   --> A_1  L_1       

 **************************************************************************

 **************************************************************************

                    xk=(   0.08066,   0.08066,   0.08066  )

     Band symmetry, C_3v (3m)   point group:

     e(  1 -  1) =     -4.95245  eV     1   --> A_1  L_1       
     e(  2 -  2) =     -1.64759  eV     1   --> A_1  L_1       
     e(  3 -  4) =      4.43642  eV     2   --> E    L_3       
     e(  5 -  5) =      6.02846  eV     1   --> A_1  L_1       
     e(  6 -  7) =      9.54369  eV     2   --> E    L_3       
     e(  8 -  8) =     13.12880  eV     1   --> A_1  L_1       

 **************************************************************************

 **************************************************************************

                    xk=(   0.08034,   0.08034,   0.08034  )

     Band symmetry, C_3v (3m)   point group:

     e(  1 -  1) =     -4.95911  eV     1   --> A_1  L_1       
     e(  2 -  2) =     -1.63688  eV     1   --> A_1  L_1       
     e(  3 -  4) =      4.43779  eV     2   --> E    L_3       
     e(  5 -  5) =      6.02986  eV     1   --> A_1  L_1       
     e(  6 -  7) =      9.54435  eV     2   --> E    L_3       
     e(  8 -  8) =     13.13067  eV     1   --> A_1  L_1       

 **************************************************************************

 **************************************************************************

                    xk=(   0.08002,   0.08002,   0.08002  )

     Band symmetry, C_3v (3m)   point group:

     e(  1 -  1) =     -4.96599  eV     1   --> A_1  L_1       
     e(  2 -  2) =     -1.62578  eV     1   --> A_1  L_1       
     e(  3 -  4) =      4.43922  eV     2   --> E    L_3       
     e(  5 -  5) =      6.03132  eV     1   --> A_1  L_1       
     e(  6 -  7) =      9.54502  eV     2   --> E    L_3       
     e(  8 -  8) =     13.13261  eV     1   --> A_1  L_1       

 **************************************************************************

 **************************************************************************

                    xk=(   0.07969,   0.07969,   0.07969  )

     Band symmetry, C_3v (3m)   point group:

     e(  1 -  1) =     -4.97308  eV     1   --> A_1  L_1       
     e(  2 -  2) =     -1.61429  eV     1   --> A_1  L_1       
     e(  3 -  4) =      4.44070  eV     2   --> E    L_3       
     e(  5 -  5) =      6.03284  eV     1   --> A_1  L_1       
     e(  6 -  7) =      9.54571  eV     2   --> E    L_3       
     e(  8 -  8) =     13.13461  eV     1   --> A_1  L_1       

 **************************************************************************

 **************************************************************************

                    xk=(   0.07937,   0.07937,   0.07937  )

     Band symmetry, C_3v (3m)   point group:

     e(  1 -  1) =     -4.98039  eV     1   --> A_1  L_1       
     e(  2 -  2) =     -1.60243  eV     1   --> A_1  L_1       
     e(  3 -  4) =      4.44223  eV     2   --> E    L_3       
     e(  5 -  5) =      6.03441  eV     1   --> A_1  L_1       
     e(  6 -  7) =      9.54643  eV     2   --> E    L_3       
     e(  8 -  8) =     13.13667  eV     1   --> A_1  L_1       

 **************************************************************************

 **************************************************************************

                    xk=(   0.07905,   0.07905,   0.07905  )

     Band symmetry, C_3v (3m)   point group:

     e(  1 -  1) =     -4.98791  eV     1   --> A_1  L_1       
     e(  2 -  2) =     -1.59019  eV     1   --> A_1  L_1       
     e(  3 -  4) =      4.44382  eV     2   --> E    L_3       
     e(  5 -  5) =      6.03604  eV     1   --> A_1  L_1       
     e(  6 -  7) =      9.54716  eV     2   --> E    L_3       
     e(  8 -  8) =     13.13880  eV     1   --> A_1  L_1       

 **************************************************************************

 **************************************************************************

                    xk=(   0.07873,   0.07873,   0.07873  )

     Band symmetry, C_3v (3m)   point group:

     e(  1 -  1) =     -4.99563  eV     1   --> A_1  L_1       
     e(  2 -  2) =     -1.57759  eV     1   --> A_1  L_1       
     e(  3 -  4) =      4.44547  eV     2   --> E    L_3       
     e(  5 -  5) =      6.03773  eV     1   --> A_1  L_1       
     e(  6 -  7) =      9.54792  eV     2   --> E    L_3       
     e(  8 -  8) =     13.14099  eV     1   --> A_1  L_1       

 **************************************************************************

 **************************************************************************

                    xk=(   0.07841,   0.07841,   0.07841  )

     Band symmetry, C_3v (3m)   point group:

     e(  1 -  1) =     -5.00355  eV     1   --> A_1  L_1       
     e(  2 -  2) =     -1.56463  eV     1   --> A_1  L_1       
     e(  3 -  4) =      4.44716  eV     2   --> E    L_3       
     e(  5 -  5) =      6.03947  eV     1   --> A_1  L_1       
     e(  6 -  7) =      9.54869  eV     2   --> E    L_3       
     e(  8 -  8) =     13.14323  eV     1   --> A_1  L_1       

 **************************************************************************

 **************************************************************************

                    xk=(   0.07809,   0.07809,   0.07809  )

     Band symmetry, C_3v (3m)   point group:

     e(  1 -  1) =     -5.01167  eV     1   --> A_1  L_1       
     e(  2 -  2) =     -1.55130  eV     1   --> A_1  L_1       
     e(  3 -  4) =      4.44892  eV     2   --> E    L_3       
     e(  5 -  5) =      6.04127  eV     1   --> A_1  L_1       
     e(  6 -  7) =      9.54948  eV     2   --> E    L_3       
     e(  8 -  8) =     13.14553  eV     1   --> A_1  L_1       

 **************************************************************************

 **************************************************************************

                    xk=(   0.07777,   0.07777,   0.07777  )

     Band symmetry, C_3v (3m)   point group:

     e(  1 -  1) =     -5.01996  eV     1   --> A_1  L_1       
     e(  2 -  2) =     -1.53763  eV     1   --> A_1  L_1       
     e(  3 -  4) =      4.45073  eV     2   --> E    L_3       
     e(  5 -  5) =      6.04313  eV     1   --> A_1  L_1       
     e(  6 -  7) =      9.55028  eV     2   --> E    L_3       
     e(  8 -  8) =     13.14788  eV     1   --> A_1  L_1       

 **************************************************************************

 **************************************************************************

                    xk=(   0.07744,   0.07744,   0.07744  )

     Band symmetry, C_3v (3m)   point group:

     e(  1 -  1) =     -5.02844  eV     1   --> A_1  L_1       
     e(  2 -  2) =     -1.52361  eV     1   --> A_1  L_1       
     e(  3 -  4) =      4.45260  eV     2   --> E    L_3       
     e(  5 -  5) =      6.04504  eV     1   --> A_1  L_1       
     e(  6 -  7) =      9.55111  eV     2   --> E    L_3       
     e(  8 -  8) =     13.15028  eV     1   --> A_1  L_1       

 **************************************************************************

 **************************************************************************

                    xk=(   0.07712,   0.07712,   0.07712  )

     Band symmetry, C_3v (3m)   point group:

     e(  1 -  1) =     -5.03710  eV     1   --> A_1  L_1       
     e(  2 -  2) =     -1.50924  eV     1   --> A_1  L_1       
     e(  3 -  4) =      4.45453  eV     2   --> E    L_3       
     e(  5 -  5) =      6.04701  eV     1   --> A_1  L_1       
     e(  6 -  7) =      9.55195  eV     2   --> E    L_3       
     e(  8 -  8) =     13.15273  eV     1   --> A_1  L_1       

 **************************************************************************

 **************************************************************************

                    xk=(   0.07680,   0.07680,   0.07680  )

     Band symmetry, C_3v (3m)   point group:

     e(  1 -  1) =     -5.04593  eV     1   --> A_1  L_1       
     e(  2 -  2) =     -1.49454  eV     1   --> A_1  L_1       
     e(  3 -  4) =      4.45650  eV     2   --> E    L_3       
     e(  5 -  5) =      6.04904  eV     1   --> A_1  L_1       
     e(  6 -  7) =      9.55280  eV     2   --> E    L_3       
     e(  8 -  8) =     13.15523  eV     1   --> A_1  L_1       

 **************************************************************************

 **************************************************************************

                    xk=(   0.07648,   0.07648,   0.07648  )

     Band symmetry, C_3v (3m)   point group:

     e(  1 -  1) =     -5.05493  eV     1   --> A_1  L_1       
     e(  2 -  2) =     -1.47951  eV     1   --> A_1  L_1       
     e(  3 -  4) =      4.45854  eV     2   --> E    L_3       
     e(  5 -  5) =      6.05112  eV     1   --> A_1  L_1       
     e(  6 -  7) =      9.55366  eV     2   --> E    L_3       
     e(  8 -  8) =     13.15777  eV     1   --> A_1  L_1       

 **************************************************************************

 **************************************************************************

                    xk=(   0.07616,   0.07616,   0.07616  )

     Band symmetry, C_3v (3m)   point group:

     e(  1 -  1) =     -5.06409  eV     1   --> A_1  L_1       
     e(  2 -  2) =     -1.46415  eV     1   --> A_1  L_1       
     e(  3 -  4) =      4.46063  eV     2   --> E    L_3       
     e(  5 -  5) =      6.05326  eV     1   --> A_1  L_1       
     e(  6 -  7) =      9.55454  eV     2   --> E    L_3       
     e(  8 -  8) =     13.16035  eV     1   --> A_1  L_1       

 **************************************************************************

 **************************************************************************

                    xk=(   0.07584,   0.07584,   0.07584  )

     Band symmetry, C_3v (3m)   point group:

     e(  1 -  1) =     -5.07340  eV     1   --> A_1  L_1       
     e(  2 -  2) =     -1.44847  eV     1   --> A_1  L_1       
     e(  3 -  4) =      4.46278  eV     2   --> E    L_3       
     e(  5 -  5) =      6.05546  eV     1   --> A_1  L_1       
     e(  6 -  7) =      9.55543  eV     2   --> E    L_3       
     e(  8 -  8) =     13.16296  eV     1   --> A_1  L_1       

 **************************************************************************

 **************************************************************************

                    xk=(   0.07552,   0.07552,   0.07552  )

     Band symmetry, C_3v (3m)   point group:

     e(  1 -  1) =     -5.08287  eV     1   --> A_1  L_1       
     e(  2 -  2) =     -1.43247  eV     1   --> A_1  L_1       
     e(  3 -  4) =      4.46498  eV     2   --> E    L_3       
     e(  5 -  5) =      6.05771  eV     1   --> A_1  L_1       
     e(  6 -  7) =      9.55633  eV     2   --> E    L_3       
     e(  8 -  8) =     13.16561  eV     1   --> A_1  L_1       

 **************************************************************************

 **************************************************************************

                    xk=(   0.07520,   0.07520,   0.07520  )

     Band symmetry, C_3v (3m)   point group:

     e(  1 -  1) =     -5.09248  eV     1   --> A_1  L_1       
     e(  2 -  2) =     -1.41617  eV     1   --> A_1  L_1       
     e(  3 -  4) =      4.46723  eV     2   --> E    L_3       
     e(  5 -  5) =      6.06002  eV     1   --> A_1  L_1       
     e(  6 -  7) =      9.55724  eV     2   --> E    L_3       
     e(  8 -  8) =     13.16828  eV     1   --> A_1  L_1       

 **************************************************************************

 **************************************************************************

                    xk=(   0.07487,   0.07487,   0.07487  )

     Band symmetry, C_3v (3m)   point group:

     e(  1 -  1) =     -5.10223  eV     1   --> A_1  L_1       
     e(  2 -  2) =     -1.39956  eV     1   --> A_1  L_1       
     e(  3 -  4) =      4.46954  eV     2   --> E    L_3       
     e(  5 -  5) =      6.06238  eV     1   --> A_1  L_1       
     e(  6 -  7) =      9.55816  eV     2   --> E    L_3       
     e(  8 -  8) =     13.17098  eV     1   --> A_1  L_1       

 **************************************************************************

 **************************************************************************

                    xk=(   0.07455,   0.07455,   0.07455  )

     Band symmetry, C_3v (3m)   point group:

     e(  1 -  1) =     -5.11213  eV     1   --> A_1  L_1       
     e(  2 -  2) =     -1.38264  eV     1   --> A_1  L_1       
     e(  3 -  4) =      4.47191  eV     2   --> E    L_3       
     e(  5 -  5) =      6.06480  eV     1   --> A_1  L_1       
     e(  6 -  7) =      9.55909  eV     2   --> E    L_3       
     e(  8 -  8) =     13.17370  eV     1   --> A_1  L_1       

 **************************************************************************

 **************************************************************************

                    xk=(   0.07423,   0.07423,   0.07423  )

     Band symmetry, C_3v (3m)   point group:

     e(  1 -  1) =     -5.12215  eV     1   --> A_1  L_1       
     e(  2 -  2) =     -1.36543  eV     1   --> A_1  L_1       
     e(  3 -  4) =      4.47433  eV     2   --> E    L_3       
     e(  5 -  5) =      6.06729  eV     1   --> A_1  L_1       
     e(  6 -  7) =      9.56003  eV     2   --> E    L_3       
     e(  8 -  8) =     13.17647  eV     1   --> A_1  L_1       

 **************************************************************************

 **************************************************************************

                    xk=(   0.07391,   0.07391,   0.07391  )

     Band symmetry, C_3v (3m)   point group:

     e(  1 -  1) =     -5.13230  eV     1   --> A_1  L_1       
     e(  2 -  2) =     -1.34793  eV     1   --> A_1  L_1       
     e(  3 -  4) =      4.47681  eV     2   --> E    L_3       
     e(  5 -  5) =      6.06982  eV     1   --> A_1  L_1       
     e(  6 -  7) =      9.56097  eV     2   --> E    L_3       
     e(  8 -  8) =     13.17921  eV     1   --> A_1  L_1       

 **************************************************************************

 **************************************************************************

                    xk=(   0.07359,   0.07359,   0.07359  )

     Band symmetry, C_3v (3m)   point group:

     e(  1 -  1) =     -5.14257  eV     1   --> A_1  L_1       
     e(  2 -  2) =     -1.33014  eV     1   --> A_1  L_1       
     e(  3 -  4) =      4.47934  eV     2   --> E    L_3       
     e(  5 -  5) =      6.07242  eV     1   --> A_1  L_1       
     e(  6 -  7) =      9.56192  eV     2   --> E    L_3       
     e(  8 -  8) =     13.18196  eV     1   --> A_1  L_1       

 **************************************************************************

 **************************************************************************

                    xk=(   0.07327,   0.07327,   0.07327  )

     Band symmetry, C_3v (3m)   point group:

     e(  1 -  1) =     -5.15296  eV     1   --> A_1  L_1       
     e(  2 -  2) =     -1.31207  eV     1   --> A_1  L_1       
     e(  3 -  4) =      4.48193  eV     2   --> E    L_3       
     e(  5 -  5) =      6.07506  eV     1   --> A_1  L_1       
     e(  6 -  7) =      9.56286  eV     2   --> E    L_3       
     e(  8 -  8) =     13.18471  eV     1   --> A_1  L_1       

 **************************************************************************

 **************************************************************************

                    xk=(   0.07295,   0.07295,   0.07295  )

     Band symmetry, C_3v (3m)   point group:

     e(  1 -  1) =     -5.16347  eV     1   --> A_1  L_1       
     e(  2 -  2) =     -1.29373  eV     1   --> A_1  L_1       
     e(  3 -  4) =      4.48457  eV     2   --> E    L_3       
     e(  5 -  5) =      6.07776  eV     1   --> A_1  L_1       
     e(  6 -  7) =      9.56382  eV     2   --> E    L_3       
     e(  8 -  8) =     13.18745  eV     1   --> A_1  L_1       

 **************************************************************************

 **************************************************************************

                    xk=(   0.07262,   0.07262,   0.07262  )

     Band symmetry, C_3v (3m)   point group:

     e(  1 -  1) =     -5.17408  eV     1   --> A_1  L_1       
     e(  2 -  2) =     -1.27511  eV     1   --> A_1  L_1       
     e(  3 -  4) =      4.48726  eV     2   --> E    L_3       
     e(  5 -  5) =      6.08051  eV     1   --> A_1  L_1       
     e(  6 -  7) =      9.56477  eV     2   --> E    L_3       
     e(  8 -  8) =     13.19017  eV     1   --> A_1  L_1       

 **************************************************************************

 **************************************************************************

                    xk=(   0.07230,   0.07230,   0.07230  )

     Band symmetry, C_3v (3m)   point group:

     e(  1 -  1) =     -5.18480  eV     1   --> A_1  L_1       
     e(  2 -  2) =     -1.25622  eV     1   --> A_1  L_1       
     e(  3 -  4) =      4.49002  eV     2   --> E    L_3       
     e(  5 -  5) =      6.08332  eV     1   --> A_1  L_1       
     e(  6 -  7) =      9.56572  eV     2   --> E    L_3       
     e(  8 -  8) =     13.19287  eV     1   --> A_1  L_1       

 **************************************************************************

 **************************************************************************

                    xk=(   0.07198,   0.07198,   0.07198  )

     Band symmetry, C_3v (3m)   point group:

     e(  1 -  1) =     -5.19561  eV     1   --> A_1  L_1       
     e(  2 -  2) =     -1.23707  eV     1   --> A_1  L_1       
     e(  3 -  4) =      4.49282  eV     2   --> E    L_3       
     e(  5 -  5) =      6.08619  eV     1   --> A_1  L_1       
     e(  6 -  7) =      9.56667  eV     2   --> E    L_3       
     e(  8 -  8) =     13.19553  eV     1   --> A_1  L_1       

 **************************************************************************

 **************************************************************************

                    xk=(   0.07166,   0.07166,   0.07166  )

     Band symmetry, C_3v (3m)   point group:

     e(  1 -  1) =     -5.20653  eV     1   --> A_1  L_1       
     e(  2 -  2) =     -1.21765  eV     1   --> A_1  L_1       
     e(  3 -  4) =      4.49568  eV     2   --> E    L_3       
     e(  5 -  5) =      6.08911  eV     1   --> A_1  L_1       
     e(  6 -  7) =      9.56762  eV     2   --> E    L_3       
     e(  8 -  8) =     13.19816  eV     1   --> A_1  L_1       

 **************************************************************************

 **************************************************************************

                    xk=(   0.07134,   0.07134,   0.07134  )

     Band symmetry, C_3v (3m)   point group:

     e(  1 -  1) =     -5.21753  eV     1   --> A_1  L_1       
     e(  2 -  2) =     -1.19799  eV     1   --> A_1  L_1       
     e(  3 -  4) =      4.49860  eV     2   --> E    L_3       
     e(  5 -  5) =      6.09208  eV     1   --> A_1  L_1       
     e(  6 -  7) =      9.56857  eV     2   --> E    L_3       
     e(  8 -  8) =     13.20073  eV     1   --> A_1  L_1       

 **************************************************************************

 **************************************************************************

                    xk=(   0.07102,   0.07102,   0.07102  )

     Band symmetry, C_3v (3m)   point group:

     e(  1 -  1) =     -5.22863  eV     1   --> A_1  L_1       
     e(  2 -  2) =     -1.17807  eV     1   --> A_1  L_1       
     e(  3 -  4) =      4.50156  eV     2   --> E    L_3       
     e(  5 -  5) =      6.09511  eV     1   --> A_1  L_1       
     e(  6 -  7) =      9.56951  eV     2   --> E    L_3       
     e(  8 -  8) =     13.20323  eV     1   --> A_1  L_1       

 **************************************************************************

 **************************************************************************

                    xk=(   0.07070,   0.07070,   0.07070  )

     Band symmetry, C_3v (3m)   point group:

     e(  1 -  1) =     -5.23981  eV     1   --> A_1  L_1       
     e(  2 -  2) =     -1.15791  eV     1   --> A_1  L_1       
     e(  3 -  4) =      4.50459  eV     2   --> E    L_3       
     e(  5 -  5) =      6.09820  eV     1   --> A_1  L_1       
     e(  6 -  7) =      9.57044  eV     2   --> E    L_3       
     e(  8 -  8) =     13.20566  eV     1   --> A_1  L_1       

 **************************************************************************

 **************************************************************************

                    xk=(   0.07038,   0.07038,   0.07038  )

     Band symmetry, C_3v (3m)   point group:

     e(  1 -  1) =     -5.25106  eV     1   --> A_1  L_1       
     e(  2 -  2) =     -1.13750  eV     1   --> A_1  L_1       
     e(  3 -  4) =      4.50767  eV     2   --> E    L_3       
     e(  5 -  5) =      6.10133  eV     1   --> A_1  L_1       
     e(  6 -  7) =      9.57136  eV     2   --> E    L_3       
     e(  8 -  8) =     13.20800  eV     1   --> A_1  L_1       

 **************************************************************************

 **************************************************************************

                    xk=(   0.07005,   0.07005,   0.07005  )

     Band symmetry, C_3v (3m)   point group:

     e(  1 -  1) =     -5.26240  eV     1   --> A_1  L_1       
     e(  2 -  2) =     -1.11686  eV     1   --> A_1  L_1       
     e(  3 -  4) =      4.51080  eV     2   --> E    L_3       
     e(  5 -  5) =      6.10453  eV     1   --> A_1  L_1       
     e(  6 -  7) =      9.57228  eV     2   --> E    L_3       
     e(  8 -  8) =     13.21024  eV     1   --> A_1  L_1       

 **************************************************************************

 **************************************************************************

                    xk=(   0.06973,   0.06973,   0.06973  )

     Band symmetry, C_3v (3m)   point group:

     e(  1 -  1) =     -5.27380  eV     1   --> A_1  L_1       
     e(  2 -  2) =     -1.09597  eV     1   --> A_1  L_1       
     e(  3 -  4) =      4.51398  eV     2   --> E    L_3       
     e(  5 -  5) =      6.10778  eV     1   --> A_1  L_1       
     e(  6 -  7) =      9.57319  eV     2   --> E    L_3       
     e(  8 -  8) =     13.21236  eV     1   --> A_1  L_1       

 **************************************************************************

 **************************************************************************

                    xk=(   0.06941,   0.06941,   0.06941  )

     Band symmetry, C_3v (3m)   point group:

     e(  1 -  1) =     -5.28527  eV     1   --> A_1  L_1       
     e(  2 -  2) =     -1.07486  eV     1   --> A_1  L_1       
     e(  3 -  4) =      4.51723  eV     2   --> E    L_3       
     e(  5 -  5) =      6.11108  eV     1   --> A_1  L_1       
     e(  6 -  7) =      9.57408  eV     2   --> E    L_3       
     e(  8 -  8) =     13.21434  eV     1   --> A_1  L_1       

 **************************************************************************

 **************************************************************************

                    xk=(   0.06909,   0.06909,   0.06909  )

     Band symmetry, C_3v (3m)   point group:

     e(  1 -  1) =     -5.29681  eV     1   --> A_1  L_1       
     e(  2 -  2) =     -1.05352  eV     1   --> A_1  L_1       
     e(  3 -  4) =      4.52052  eV     2   --> E    L_3       
     e(  5 -  5) =      6.11444  eV     1   --> A_1  L_1       
     e(  6 -  7) =      9.57496  eV     2   --> E    L_3       
     e(  8 -  8) =     13.21617  eV     1   --> A_1  L_1       

 **************************************************************************

 **************************************************************************

                    xk=(   0.06877,   0.06877,   0.06877  )

     Band symmetry, C_3v (3m)   point group:

     e(  1 -  1) =     -5.30841  eV     1   --> A_1  L_1       
     e(  2 -  2) =     -1.03196  eV     1   --> A_1  L_1       
     e(  3 -  4) =      4.52387  eV     2   --> E    L_3       
     e(  5 -  5) =      6.11785  eV     1   --> A_1  L_1       
     e(  6 -  7) =      9.57583  eV     2   --> E    L_3       
     e(  8 -  8) =     13.21782  eV     1   --> A_1  L_1       

 **************************************************************************

 **************************************************************************

                    xk=(   0.06845,   0.06845,   0.06845  )

     Band symmetry, C_3v (3m)   point group:

     e(  1 -  1) =     -5.32007  eV     1   --> A_1  L_1       
     e(  2 -  2) =     -1.01017  eV     1   --> A_1  L_1       
     e(  3 -  4) =      4.52727  eV     2   --> E    L_3       
     e(  5 -  5) =      6.12131  eV     1   --> A_1  L_1       
     e(  6 -  7) =      9.57668  eV     2   --> E    L_3       
     e(  8 -  8) =     13.21927  eV     1   --> A_1  L_1       

 **************************************************************************

 **************************************************************************

                    xk=(   0.06813,   0.06813,   0.06813  )

     Band symmetry, C_3v (3m)   point group:

     e(  1 -  1) =     -5.33178  eV     1   --> A_1  L_1       
     e(  2 -  2) =     -0.98817  eV     1   --> A_1  L_1       
     e(  3 -  4) =      4.53073  eV     2   --> E    L_3       
     e(  5 -  5) =      6.12483  eV     1   --> A_1  L_1       
     e(  6 -  7) =      9.57751  eV     2   --> E    L_3       
     e(  8 -  8) =     13.22050  eV     1   --> A_1  L_1       

 **************************************************************************

 **************************************************************************

                    xk=(   0.06780,   0.06780,   0.06780  )

     Band symmetry, C_3v (3m)   point group:

     e(  1 -  1) =     -5.34355  eV     1   --> A_1  L_1       
     e(  2 -  2) =     -0.96595  eV     1   --> A_1  L_1       
     e(  3 -  4) =      4.53424  eV     2   --> E    L_3       
     e(  5 -  5) =      6.12841  eV     1   --> A_1  L_1       
     e(  6 -  7) =      9.57832  eV     2   --> E    L_3       
     e(  8 -  8) =     13.22147  eV     1   --> A_1  L_1       

 **************************************************************************

 **************************************************************************

                    xk=(   0.06748,   0.06748,   0.06748  )

     Band symmetry, C_3v (3m)   point group:

     e(  1 -  1) =     -5.35536  eV     1   --> A_1  L_1       
     e(  2 -  2) =     -0.94352  eV     1   --> A_1  L_1       
     e(  3 -  4) =      4.53781  eV     2   --> E    L_3       
     e(  5 -  5) =      6.13203  eV     1   --> A_1  L_1       
     e(  6 -  7) =      9.57912  eV     2   --> E    L_3       
     e(  8 -  8) =     13.22216  eV     1   --> A_1  L_1       

 **************************************************************************

 **************************************************************************

                    xk=(   0.06716,   0.06716,   0.06716  )

     Band symmetry, C_3v (3m)   point group:

     e(  1 -  1) =     -5.36722  eV     1   --> A_1  L_1       
     e(  2 -  2) =     -0.92090  eV     1   --> A_1  L_1       
     e(  3 -  4) =      4.54143  eV     2   --> E    L_3       
     e(  5 -  5) =      6.13571  eV     1   --> A_1  L_1       
     e(  6 -  7) =      9.57988  eV     2   --> E    L_3       
     e(  8 -  8) =     13.22253  eV     1   --> A_1  L_1       

 **************************************************************************

 **************************************************************************

                    xk=(   0.06684,   0.06684,   0.06684  )

     Band symmetry, C_3v (3m)   point group:

     e(  1 -  1) =     -5.37911  eV     1   --> A_1  L_1       
     e(  2 -  2) =     -0.89806  eV     1   --> A_1  L_1       
     e(  3 -  4) =      4.54510  eV     2   --> E    L_3       
     e(  5 -  5) =      6.13944  eV     1   --> A_1  L_1       
     e(  6 -  7) =      9.58062  eV     2   --> E    L_3       
     e(  8 -  8) =     13.22254  eV     1   --> A_1  L_1       

 **************************************************************************

 **************************************************************************

                    xk=(   0.06652,   0.06652,   0.06652  )

     Band symmetry, C_3v (3m)   point group:

     e(  1 -  1) =     -5.39105  eV     1   --> A_1  L_1       
     e(  2 -  2) =     -0.87502  eV     1   --> A_1  L_1       
     e(  3 -  4) =      4.54883  eV     2   --> E    L_3       
     e(  5 -  5) =      6.14323  eV     1   --> A_1  L_1       
     e(  6 -  7) =      9.58134  eV     2   --> E    L_3       
     e(  8 -  8) =     13.22216  eV     1   --> A_1  L_1       

 **************************************************************************

 **************************************************************************

                    xk=(   0.06620,   0.06620,   0.06620  )

     Band symmetry, C_3v (3m)   point group:

     e(  1 -  1) =     -5.40303  eV     1   --> A_1  L_1       
     e(  2 -  2) =     -0.85179  eV     1   --> A_1  L_1       
     e(  3 -  4) =      4.55260  eV     2   --> E    L_3       
     e(  5 -  5) =      6.14707  eV     1   --> A_1  L_1       
     e(  6 -  7) =      9.58203  eV     2   --> E    L_3       
     e(  8 -  8) =     13.22135  eV     1   --> A_1  L_1       

 **************************************************************************

 **************************************************************************

                    xk=(   0.06588,   0.06588,   0.06588  )

     Band symmetry, C_3v (3m)   point group:

     e(  1 -  1) =     -5.41503  eV     1   --> A_1  L_1       
     e(  2 -  2) =     -0.82836  eV     1   --> A_1  L_1       
     e(  3 -  4) =      4.55644  eV     2   --> E    L_3       
     e(  5 -  5) =      6.15096  eV     1   --> A_1  L_1       
     e(  6 -  7) =      9.58269  eV     2   --> E    L_3       
     e(  8 -  8) =     13.22005  eV     1   --> A_1  L_1       

 **************************************************************************

 **************************************************************************

                    xk=(   0.06555,   0.06555,   0.06555  )

     Band symmetry, C_3v (3m)   point group:

     e(  1 -  1) =     -5.42707  eV     1   --> A_1  L_1       
     e(  2 -  2) =     -0.80474  eV     1   --> A_1  L_1       
     e(  3 -  4) =      4.56032  eV     2   --> E    L_3       
     e(  5 -  5) =      6.15490  eV     1   --> A_1  L_1       
     e(  6 -  7) =      9.58332  eV     2   --> E    L_3       
     e(  8 -  8) =     13.21822  eV     1   --> A_1  L_1       

 **************************************************************************

 **************************************************************************

                    xk=(   0.06523,   0.06523,   0.06523  )

     Band symmetry, C_3v (3m)   point group:

     e(  1 -  1) =     -5.43913  eV     1   --> A_1  L_1       
     e(  2 -  2) =     -0.78092  eV     1   --> A_1  L_1       
     e(  3 -  4) =      4.56426  eV     2   --> E    L_3       
     e(  5 -  5) =      6.15890  eV     1   --> A_1  L_1       
     e(  6 -  7) =      9.58391  eV     2   --> E    L_3       
     e(  8 -  8) =     13.21580  eV     1   --> A_1  L_1       

 **************************************************************************

 **************************************************************************

                    xk=(   0.06491,   0.06491,   0.06491  )

     Band symmetry, C_3v (3m)   point group:

     e(  1 -  1) =     -5.45122  eV     1   --> A_1  L_1       
     e(  2 -  2) =     -0.75693  eV     1   --> A_1  L_1       
     e(  3 -  4) =      4.56825  eV     2   --> E    L_3       
     e(  5 -  5) =      6.16295  eV     1   --> A_1  L_1       
     e(  6 -  7) =      9.58448  eV     2   --> E    L_3       
     e(  8 -  8) =     13.21273  eV     1   --> A_1  L_1       

 **************************************************************************

 **************************************************************************

                    xk=(   0.06459,   0.06459,   0.06459  )

     Band symmetry, C_3v (3m)   point group:

     e(  1 -  1) =     -5.46333  eV     1   --> A_1  L_1       
     e(  2 -  2) =     -0.73275  eV     1   --> A_1  L_1       
     e(  3 -  4) =      4.57230  eV     2   --> E    L_3       
     e(  5 -  5) =      6.16705  eV     1   --> A_1  L_1       
     e(  6 -  7) =      9.58500  eV     2   --> E    L_3       
     e(  8 -  8) =     13.20896  eV     1   --> A_1  L_1       

 **************************************************************************

 **************************************************************************

                    xk=(   0.06427,   0.06427,   0.06427  )

     Band symmetry, C_3v (3m)   point group:

     e(  1 -  1) =     -5.47546  eV     1   --> A_1  L_1       
     e(  2 -  2) =     -0.70839  eV     1   --> A_1  L_1       
     e(  3 -  4) =      4.57640  eV     2   --> E    L_3       
     e(  5 -  5) =      6.17120  eV     1   --> A_1  L_1       
     e(  6 -  7) =      9.58549  eV     2   --> E    L_3       
     e(  8 -  8) =     13.20443  eV     1   --> A_1  L_1       

 **************************************************************************

 **************************************************************************

                    xk=(   0.06395,   0.06395,   0.06395  )

     Band symmetry, C_3v (3m)   point group:

     e(  1 -  1) =     -5.48761  eV     1   --> A_1  L_1       
     e(  2 -  2) =     -0.68385  eV     1   --> A_1  L_1       
     e(  3 -  4) =      4.58055  eV     2   --> E    L_3       
     e(  5 -  5) =      6.17541  eV     1   --> A_1  L_1       
     e(  6 -  7) =      9.58593  eV     2   --> E    L_3       
     e(  8 -  8) =     13.19906  eV     1   --> A_1  L_1       

 **************************************************************************

 **************************************************************************

                    xk=(   0.06363,   0.06363,   0.06363  )

     Band symmetry, C_3v (3m)   point group:

     e(  1 -  1) =     -5.49978  eV     1   --> A_1  L_1       
     e(  2 -  2) =     -0.65913  eV     1   --> A_1  L_1       
     e(  3 -  4) =      4.58475  eV     2   --> E    L_3       
     e(  5 -  5) =      6.17967  eV     1   --> A_1  L_1       
     e(  6 -  7) =      9.58634  eV     2   --> E    L_3       
     e(  8 -  8) =     13.19280  eV     1   --> A_1  L_1       

 **************************************************************************

 **************************************************************************

                    xk=(   0.06331,   0.06331,   0.06331  )

     Band symmetry, C_3v (3m)   point group:

     e(  1 -  1) =     -5.51195  eV     1   --> A_1  L_1       
     e(  2 -  2) =     -0.63425  eV     1   --> A_1  L_1       
     e(  3 -  4) =      4.58901  eV     2   --> E    L_3       
     e(  5 -  5) =      6.18397  eV     1   --> A_1  L_1       
     e(  6 -  7) =      9.58670  eV     2   --> E    L_3       
     e(  8 -  8) =     13.18558  eV     1   --> A_1  L_1       

 **************************************************************************

 **************************************************************************

                    xk=(   0.06298,   0.06298,   0.06298  )

     Band symmetry, C_3v (3m)   point group:

     e(  1 -  1) =     -5.52414  eV     1   --> A_1  L_1       
     e(  2 -  2) =     -0.60919  eV     1   --> A_1  L_1       
     e(  3 -  4) =      4.59332  eV     2   --> E    L_3       
     e(  5 -  5) =      6.18833  eV     1   --> A_1  L_1       
     e(  6 -  7) =      9.58701  eV     2   --> E    L_3       
     e(  8 -  8) =     13.17735  eV     1   --> A_1  L_1       

 **************************************************************************

 **************************************************************************

                    xk=(   0.06266,   0.06266,   0.06266  )

     Band symmetry, C_3v (3m)   point group:

     e(  1 -  1) =     -5.53633  eV     1   --> A_1  L_1       
     e(  2 -  2) =     -0.58396  eV     1   --> A_1  L_1       
     e(  3 -  4) =      4.59768  eV     2   --> E    L_3       
     e(  5 -  5) =      6.19274  eV     1   --> A_1  L_1       
     e(  6 -  7) =      9.58728  eV     2   --> E    L_3       
     e(  8 -  8) =     13.16804  eV     1   --> A_1  L_1       

 **************************************************************************

 **************************************************************************

                    xk=(   0.06234,   0.06234,   0.06234  )

     Band symmetry, C_3v (3m)   point group:

     e(  1 -  1) =     -5.54854  eV     1   --> A_1  L_1       
     e(  2 -  2) =     -0.55857  eV     1   --> A_1  L_1       
     e(  3 -  4) =      4.60209  eV     2   --> E    L_3       
     e(  5 -  5) =      6.19720  eV     1   --> A_1  L_1       
     e(  6 -  7) =      9.58749  eV     2   --> E    L_3       
     e(  8 -  8) =     13.15761  eV     1   --> A_1  L_1       

 **************************************************************************

 **************************************************************************

                    xk=(   0.06202,   0.06202,   0.06202  )

     Band symmetry, C_3v (3m)   point group:

     e(  1 -  1) =     -5.56074  eV     1   --> A_1  L_1       
     e(  2 -  2) =     -0.53301  eV     1   --> A_1  L_1       
     e(  3 -  4) =      4.60655  eV     2   --> E    L_3       
     e(  5 -  5) =      6.20171  eV     1   --> A_1  L_1       
     e(  6 -  7) =      9.58766  eV     2   --> E    L_3       
     e(  8 -  8) =     13.14601  eV     1   --> A_1  L_1       

 **************************************************************************

 **************************************************************************

                    xk=(   0.06170,   0.06170,   0.06170  )

     Band symmetry, C_3v (3m)   point group:

     e(  1 -  1) =     -5.57295  eV     1   --> A_1  L_1       
     e(  2 -  2) =     -0.50729  eV     1   --> A_1  L_1       
     e(  3 -  4) =      4.61108  eV     2   --> E    L_3       
     e(  5 -  5) =      6.20628  eV     1   --> A_1  L_1       
     e(  6 -  7) =      9.58778  eV     2   --> E    L_3       
     e(  8 -  8) =     13.13323  eV     1   --> A_1  L_1       

 **************************************************************************

 **************************************************************************

                    xk=(   0.06138,   0.06138,   0.06138  )

     Band symmetry, C_3v (3m)   point group:

     e(  1 -  1) =     -5.58515  eV     1   --> A_1  L_1       
     e(  2 -  2) =     -0.48141  eV     1   --> A_1  L_1       
     e(  3 -  4) =      4.61564  eV     2   --> E    L_3       
     e(  5 -  5) =      6.21089  eV     1   --> A_1  L_1       
     e(  6 -  7) =      9.58783  eV     2   --> E    L_3       
     e(  8 -  8) =     13.11923  eV     1   --> A_1  L_1       

 **************************************************************************

 **************************************************************************

                    xk=(   0.06106,   0.06106,   0.06106  )

     Band symmetry, C_3v (3m)   point group:

     e(  1 -  1) =     -5.59736  eV     1   --> A_1  L_1       
     e(  2 -  2) =     -0.45538  eV     1   --> A_1  L_1       
     e(  3 -  4) =      4.62027  eV     2   --> E    L_3       
     e(  5 -  5) =      6.21555  eV     1   --> A_1  L_1       
     e(  6 -  7) =      9.58783  eV     2   --> E    L_3       
     e(  8 -  8) =     13.10401  eV     1   --> A_1  L_1       

 **************************************************************************

 **************************************************************************

                    xk=(   0.06073,   0.06073,   0.06073  )

     Band symmetry, C_3v (3m)   point group:

     e(  1 -  1) =     -5.60956  eV     1   --> A_1  L_1       
     e(  2 -  2) =     -0.42919  eV     1   --> A_1  L_1       
     e(  3 -  4) =      4.62494  eV     2   --> E    L_3       
     e(  5 -  5) =      6.22026  eV     1   --> A_1  L_1       
     e(  6 -  7) =      9.58777  eV     2   --> E    L_3       
     e(  8 -  8) =     13.08757  eV     1   --> A_1  L_1       

 **************************************************************************

 **************************************************************************

                    xk=(   0.06041,   0.06041,   0.06041  )

     Band symmetry, C_3v (3m)   point group:

     e(  1 -  1) =     -5.62175  eV     1   --> A_1  L_1       
     e(  2 -  2) =     -0.40285  eV     1   --> A_1  L_1       
     e(  3 -  4) =      4.62966  eV     2   --> E    L_3       
     e(  5 -  5) =      6.22502  eV     1   --> A_1  L_1       
     e(  6 -  7) =      9.58765  eV     2   --> E    L_3       
     e(  8 -  8) =     13.06994  eV     1   --> A_1  L_1       

 **************************************************************************

 **************************************************************************

                    xk=(   0.06009,   0.06009,   0.06009  )

     Band symmetry, C_3v (3m)   point group:

     e(  1 -  1) =     -5.63394  eV     1   --> A_1  L_1       
     e(  2 -  2) =     -0.37635  eV     1   --> A_1  L_1       
     e(  3 -  4) =      4.63444  eV     2   --> E    L_3       
     e(  5 -  5) =      6.22983  eV     1   --> A_1  L_1       
     e(  6 -  7) =      9.58746  eV     2   --> E    L_3       
     e(  8 -  8) =     13.05114  eV     1   --> A_1  L_1       

 **************************************************************************

 **************************************************************************

                    xk=(   0.05977,   0.05977,   0.05977  )

     Band symmetry, C_3v (3m)   point group:

     e(  1 -  1) =     -5.64611  eV     1   --> A_1  L_1       
     e(  2 -  2) =     -0.34971  eV     1   --> A_1  L_1       
     e(  3 -  4) =      4.63926  eV     2   --> E    L_3       
     e(  5 -  5) =      6.23468  eV     1   --> A_1  L_1       
     e(  6 -  7) =      9.58721  eV     2   --> E    L_3       
     e(  8 -  8) =     13.03122  eV     1   --> A_1  L_1       

 **************************************************************************

 **************************************************************************

                    xk=(   0.05945,   0.05945,   0.05945  )

     Band symmetry, C_3v (3m)   point group:

     e(  1 -  1) =     -5.65828  eV     1   --> A_1  L_1       
     e(  2 -  2) =     -0.32292  eV     1   --> A_1  L_1       
     e(  3 -  4) =      4.64414  eV     2   --> E    L_3       
     e(  5 -  5) =      6.23959  eV     1   --> A_1  L_1       
     e(  6 -  7) =      9.58689  eV     2   --> E    L_3       
     e(  8 -  8) =     13.01021  eV     1   --> A_1  L_1       

 **************************************************************************

 **************************************************************************

                    xk=(   0.05913,   0.05913,   0.05913  )

     Band symmetry, C_3v (3m)   point group:

     e(  1 -  1) =     -5.67043  eV     1   --> A_1  L_1       
     e(  2 -  2) =     -0.29598  eV     1   --> A_1  L_1       
     e(  3 -  4) =      4.64906  eV     2   --> E    L_3       
     e(  5 -  5) =      6.24454  eV     1   --> A_1  L_1       
     e(  6 -  7) =      9.58648  eV     2   --> E    L_3       
     e(  8 -  8) =     12.98815  eV     1   --> A_1  L_1       

 **************************************************************************

 **************************************************************************

                    xk=(   0.05881,   0.05881,   0.05881  )

     Band symmetry, C_3v (3m)   point group:

     e(  1 -  1) =     -5.68257  eV     1   --> A_1  L_1       
     e(  2 -  2) =     -0.26890  eV     1   --> A_1  L_1       
     e(  3 -  4) =      4.65404  eV     2   --> E    L_3       
     e(  5 -  5) =      6.24954  eV     1   --> A_1  L_1       
     e(  6 -  7) =      9.58602  eV     2   --> E    L_3       
     e(  8 -  8) =     12.96514  eV     1   --> A_1  L_1       

 **************************************************************************

 **************************************************************************

                    xk=(   0.05849,   0.05849,   0.05849  )

     Band symmetry, C_3v (3m)   point group:

     e(  1 -  1) =     -5.69469  eV     1   --> A_1  L_1       
     e(  2 -  2) =     -0.24168  eV     1   --> A_1  L_1       
     e(  3 -  4) =      4.65907  eV     2   --> E    L_3       
     e(  5 -  5) =      6.25458  eV     1   --> A_1  L_1       
     e(  6 -  7) =      9.58548  eV     2   --> E    L_3       
     e(  8 -  8) =     12.94122  eV     1   --> A_1  L_1       

 **************************************************************************

 **************************************************************************

                    xk=(   0.05816,   0.05816,   0.05816  )

     Band symmetry, C_3v (3m)   point group:

     e(  1 -  1) =     -5.70680  eV     1   --> A_1  L_1       
     e(  2 -  2) =     -0.21432  eV     1   --> A_1  L_1       
     e(  3 -  4) =      4.66415  eV     2   --> E    L_3       
     e(  5 -  5) =      6.25968  eV     1   --> A_1  L_1       
     e(  6 -  7) =      9.58487  eV     2   --> E    L_3       
     e(  8 -  8) =     12.91646  eV     1   --> A_1  L_1       

 **************************************************************************

 **************************************************************************

                    xk=(   0.05784,   0.05784,   0.05784  )

     Band symmetry, C_3v (3m)   point group:

     e(  1 -  1) =     -5.71888  eV     1   --> A_1  L_1       
     e(  2 -  2) =     -0.18682  eV     1   --> A_1  L_1       
     e(  3 -  4) =      4.66928  eV     2   --> E    L_3       
     e(  5 -  5) =      6.26482  eV     1   --> A_1  L_1       
     e(  6 -  7) =      9.58418  eV     2   --> E    L_3       
     e(  8 -  8) =     12.89091  eV     1   --> A_1  L_1       

 **************************************************************************

 **************************************************************************

                    xk=(   0.05752,   0.05752,   0.05752  )

     Band symmetry, C_3v (3m)   point group:

     e(  1 -  1) =     -5.73095  eV     1   --> A_1  L_1       
     e(  2 -  2) =     -0.15918  eV     1   --> A_1  L_1       
     e(  3 -  4) =      4.67446  eV     2   --> E    L_3       
     e(  5 -  5) =      6.27001  eV     1   --> A_1  L_1       
     e(  6 -  7) =      9.58341  eV     2   --> E    L_3       
     e(  8 -  8) =     12.86463  eV     1   --> A_1  L_1       

 **************************************************************************

 **************************************************************************

                    xk=(   0.05720,   0.05720,   0.05720  )

     Band symmetry, C_3v (3m)   point group:

     e(  1 -  1) =     -5.74299  eV     1   --> A_1  L_1       
     e(  2 -  2) =     -0.13141  eV     1   --> A_1  L_1       
     e(  3 -  4) =      4.67969  eV     2   --> E    L_3       
     e(  5 -  5) =      6.27525  eV     1   --> A_1  L_1       
     e(  6 -  7) =      9.58256  eV     2   --> E    L_3       
     e(  8 -  8) =     12.83769  eV     1   --> A_1  L_1       

 **************************************************************************

 **************************************************************************

                    xk=(   0.05688,   0.05688,   0.05688  )

     Band symmetry, C_3v (3m)   point group:

     e(  1 -  1) =     -5.75501  eV     1   --> A_1  L_1       
     e(  2 -  2) =     -0.10350  eV     1   --> A_1  L_1       
     e(  3 -  4) =      4.68497  eV     2   --> E    L_3       
     e(  5 -  5) =      6.28053  eV     1   --> A_1  L_1       
     e(  6 -  7) =      9.58162  eV     2   --> E    L_3       
     e(  8 -  8) =     12.81013  eV     1   --> A_1  L_1       

 **************************************************************************

 **************************************************************************

                    xk=(   0.05656,   0.05656,   0.05656  )

     Band symmetry, C_3v (3m)   point group:

     e(  1 -  1) =     -5.76700  eV     1   --> A_1  L_1       
     e(  2 -  2) =     -0.07546  eV     1   --> A_1  L_1       
     e(  3 -  4) =      4.69030  eV     2   --> E    L_3       
     e(  5 -  5) =      6.28585  eV     1   --> A_1  L_1       
     e(  6 -  7) =      9.58060  eV     2   --> E    L_3       
     e(  8 -  8) =     12.78201  eV     1   --> A_1  L_1       

 **************************************************************************

 **************************************************************************

                    xk=(   0.05624,   0.05624,   0.05624  )

     Band symmetry, C_3v (3m)   point group:

     e(  1 -  1) =     -5.77897  eV     1   --> A_1  L_1       
     e(  2 -  2) =     -0.04730  eV     1   --> A_1  L_1       
     e(  3 -  4) =      4.69568  eV     2   --> E    L_3       
     e(  5 -  5) =      6.29122  eV     1   --> A_1  L_1       
     e(  6 -  7) =      9.57949  eV     2   --> E    L_3       
     e(  8 -  8) =     12.75338  eV     1   --> A_1  L_1       

 **************************************************************************

 **************************************************************************

                    xk=(   0.05591,   0.05591,   0.05591  )

     Band symmetry, C_3v (3m)   point group:

     e(  1 -  1) =     -5.79091  eV     1   --> A_1  L_1       
     e(  2 -  2) =     -0.01900  eV     1   --> A_1  L_1       
     e(  3 -  4) =      4.70110  eV     2   --> E    L_3       
     e(  5 -  5) =      6.29664  eV     1   --> A_1  L_1       
     e(  6 -  7) =      9.57829  eV     2   --> E    L_3       
     e(  8 -  8) =     12.72428  eV     1   --> A_1  L_1       

 **************************************************************************

 **************************************************************************

                    xk=(   0.05559,   0.05559,   0.05559  )

     Band symmetry, C_3v (3m)   point group:

     e(  1 -  1) =     -5.80282  eV     1   --> A_1  L_1       
     e(  2 -  2) =      0.00942  eV     1   --> A_1  L_1       
     e(  3 -  4) =      4.70657  eV     2   --> E    L_3       
     e(  5 -  5) =      6.30210  eV     1   --> A_1  L_1       
     e(  6 -  7) =      9.57700  eV     2   --> E    L_3       
     e(  8 -  8) =     12.69475  eV     1   --> A_1  L_1       

 **************************************************************************

 **************************************************************************

                    xk=(   0.05527,   0.05527,   0.05527  )

     Band symmetry, C_3v (3m)   point group:

     e(  1 -  1) =     -5.81471  eV     1   --> A_1  L_1       
     e(  2 -  2) =      0.03797  eV     1   --> A_1  L_1       
     e(  3 -  4) =      4.71210  eV     2   --> E    L_3       
     e(  5 -  5) =      6.30760  eV     1   --> A_1  L_1       
     e(  6 -  7) =      9.57561  eV     2   --> E    L_3       
     e(  8 -  8) =     12.66484  eV     1   --> A_1  L_1       

 **************************************************************************

 **************************************************************************

                    xk=(   0.05495,   0.05495,   0.05495  )

     Band symmetry, C_3v (3m)   point group:

     e(  1 -  1) =     -5.82656  eV     1   --> A_1  L_1       
     e(  2 -  2) =      0.06665  eV     1   --> A_1  L_1       
     e(  3 -  4) =      4.71767  eV     2   --> E    L_3       
     e(  5 -  5) =      6.31315  eV     1   --> A_1  L_1       
     e(  6 -  7) =      9.57413  eV     2   --> E    L_3       
     e(  8 -  8) =     12.63458  eV     1   --> A_1  L_1       

 **************************************************************************

 **************************************************************************

                    xk=(   0.05463,   0.05463,   0.05463  )

     Band symmetry, C_3v (3m)   point group:

     e(  1 -  1) =     -5.83838  eV     1   --> A_1  L_1       
     e(  2 -  2) =      0.09545  eV     1   --> A_1  L_1       
     e(  3 -  4) =      4.72330  eV     2   --> E    L_3       
     e(  5 -  5) =      6.31874  eV     1   --> A_1  L_1       
     e(  6 -  7) =      9.57255  eV     2   --> E    L_3       
     e(  8 -  8) =     12.60400  eV     1   --> A_1  L_1       

 **************************************************************************

 **************************************************************************

                    xk=(   0.05431,   0.05431,   0.05431  )

     Band symmetry, C_3v (3m)   point group:

     e(  1 -  1) =     -5.85016  eV     1   --> A_1  L_1       
     e(  2 -  2) =      0.12437  eV     1   --> A_1  L_1       
     e(  3 -  4) =      4.72897  eV     2   --> E    L_3       
     e(  5 -  5) =      6.32437  eV     1   --> A_1  L_1       
     e(  6 -  7) =      9.57087  eV     2   --> E    L_3       
     e(  8 -  8) =     12.57313  eV     1   --> A_1  L_1       

 **************************************************************************

 **************************************************************************

                    xk=(   0.05399,   0.05399,   0.05399  )

     Band symmetry, C_3v (3m)   point group:

     e(  1 -  1) =     -5.86191  eV     1   --> A_1  L_1       
     e(  2 -  2) =      0.15341  eV     1   --> A_1  L_1       
     e(  3 -  4) =      4.73469  eV     2   --> E    L_3       
     e(  5 -  5) =      6.33005  eV     1   --> A_1  L_1       
     e(  6 -  7) =      9.56908  eV     2   --> E    L_3       
     e(  8 -  8) =     12.54200  eV     1   --> A_1  L_1       

 **************************************************************************

 **************************************************************************

                    xk=(   0.05366,   0.05366,   0.05366  )

     Band symmetry, C_3v (3m)   point group:

     e(  1 -  1) =     -5.87363  eV     1   --> A_1  L_1       
     e(  2 -  2) =      0.18257  eV     1   --> A_1  L_1       
     e(  3 -  4) =      4.74045  eV     2   --> E    L_3       
     e(  5 -  5) =      6.33577  eV     1   --> A_1  L_1       
     e(  6 -  7) =      9.56720  eV     2   --> E    L_3       
     e(  8 -  8) =     12.51063  eV     1   --> A_1  L_1       

 **************************************************************************

 **************************************************************************

                    xk=(   0.05334,   0.05334,   0.05334  )

     Band symmetry, C_3v (3m)   point group:

     e(  1 -  1) =     -5.88530  eV     1   --> A_1  L_1       
     e(  2 -  2) =      0.21185  eV     1   --> A_1  L_1       
     e(  3 -  4) =      4.74627  eV     2   --> E    L_3       
     e(  5 -  5) =      6.34152  eV     1   --> A_1  L_1       
     e(  6 -  7) =      9.56521  eV     2   --> E    L_3       
     e(  8 -  8) =     12.47904  eV     1   --> A_1  L_1       

 **************************************************************************

 **************************************************************************

                    xk=(   0.05302,   0.05302,   0.05302  )

     Band symmetry, C_3v (3m)   point group:

     e(  1 -  1) =     -5.89694  eV     1   --> A_1  L_1       
     e(  2 -  2) =      0.24124  eV     1   --> A_1  L_1       
     e(  3 -  4) =      4.75213  eV     2   --> E    L_3       
     e(  5 -  5) =      6.34732  eV     1   --> A_1  L_1       
     e(  6 -  7) =      9.56311  eV     2   --> E    L_3       
     e(  8 -  8) =     12.44726  eV     1   --> A_1  L_1       

 **************************************************************************

 **************************************************************************

                    xk=(   0.05270,   0.05270,   0.05270  )

     Band symmetry, C_3v (3m)   point group:

     e(  1 -  1) =     -5.90855  eV     1   --> A_1  L_1       
     e(  2 -  2) =      0.27075  eV     1   --> A_1  L_1       
     e(  3 -  4) =      4.75804  eV     2   --> E    L_3       
     e(  5 -  5) =      6.35316  eV     1   --> A_1  L_1       
     e(  6 -  7) =      9.56090  eV     2   --> E    L_3       
     e(  8 -  8) =     12.41530  eV     1   --> A_1  L_1       

 **************************************************************************

 **************************************************************************

                    xk=(   0.05238,   0.05238,   0.05238  )

     Band symmetry, C_3v (3m)   point group:

     e(  1 -  1) =     -5.92011  eV     1   --> A_1  L_1       
     e(  2 -  2) =      0.30037  eV     1   --> A_1  L_1       
     e(  3 -  4) =      4.76399  eV     2   --> E    L_3       
     e(  5 -  5) =      6.35904  eV     1   --> A_1  L_1       
     e(  6 -  7) =      9.55858  eV     2   --> E    L_3       
     e(  8 -  8) =     12.38317  eV     1   --> A_1  L_1       

 **************************************************************************

 **************************************************************************

                    xk=(   0.05206,   0.05206,   0.05206  )

     Band symmetry, C_3v (3m)   point group:

     e(  1 -  1) =     -5.93163  eV     1   --> A_1  L_1       
     e(  2 -  2) =      0.33011  eV     1   --> A_1  L_1       
     e(  3 -  4) =      4.77000  eV     2   --> E    L_3       
     e(  5 -  5) =      6.36496  eV     1   --> A_1  L_1       
     e(  6 -  7) =      9.55615  eV     2   --> E    L_3       
     e(  8 -  8) =     12.35090  eV     1   --> A_1  L_1       

 **************************************************************************

 **************************************************************************

                    xk=(   0.05174,   0.05174,   0.05174  )

     Band symmetry, C_3v (3m)   point group:

     e(  1 -  1) =     -5.94311  eV     1   --> A_1  L_1       
     e(  2 -  2) =      0.35996  eV     1   --> A_1  L_1       
     e(  3 -  4) =      4.77604  eV     2   --> E    L_3       
     e(  5 -  5) =      6.37092  eV     1   --> A_1  L_1       
     e(  6 -  7) =      9.55361  eV     2   --> E    L_3       
     e(  8 -  8) =     12.31850  eV     1   --> A_1  L_1       

 **************************************************************************

 **************************************************************************

                    xk=(   0.05142,   0.05142,   0.05142  )

     Band symmetry, C_3v (3m)   point group:

     e(  1 -  1) =     -5.95455  eV     1   --> A_1  L_1       
     e(  2 -  2) =      0.38992  eV     1   --> A_1  L_1       
     e(  3 -  4) =      4.78214  eV     2   --> E    L_3       
     e(  5 -  5) =      6.37691  eV     1   --> A_1  L_1       
     e(  6 -  7) =      9.55095  eV     2   --> E    L_3       
     e(  8 -  8) =     12.28598  eV     1   --> A_1  L_1       

 **************************************************************************

 **************************************************************************

                    xk=(   0.05109,   0.05109,   0.05109  )

     Band symmetry, C_3v (3m)   point group:

     e(  1 -  1) =     -5.96594  eV     1   --> A_1  L_1       
     e(  2 -  2) =      0.41999  eV     1   --> A_1  L_1       
     e(  3 -  4) =      4.78828  eV     2   --> E    L_3       
     e(  5 -  5) =      6.38294  eV     1   --> A_1  L_1       
     e(  6 -  7) =      9.54818  eV     2   --> E    L_3       
     e(  8 -  8) =     12.25334  eV     1   --> A_1  L_1       

 **************************************************************************

 **************************************************************************

                    xk=(   0.05077,   0.05077,   0.05077  )

     Band symmetry, C_3v (3m)   point group:

     e(  1 -  1) =     -5.97729  eV     1   --> A_1  L_1       
     e(  2 -  2) =      0.45016  eV     1   --> A_1  L_1       
     e(  3 -  4) =      4.79446  eV     2   --> E    L_3       
     e(  5 -  5) =      6.38901  eV     1   --> A_1  L_1       
     e(  6 -  7) =      9.54528  eV     2   --> E    L_3       
     e(  8 -  8) =     12.22062  eV     1   --> A_1  L_1       

 **************************************************************************

 **************************************************************************

                    xk=(   0.05045,   0.05045,   0.05045  )

     Band symmetry, C_3v (3m)   point group:

     e(  1 -  1) =     -5.98860  eV     1   --> A_1  L_1       
     e(  2 -  2) =      0.48045  eV     1   --> A_1  L_1       
     e(  3 -  4) =      4.80070  eV     2   --> E    L_3       
     e(  5 -  5) =      6.39512  eV     1   --> A_1  L_1       
     e(  6 -  7) =      9.54227  eV     2   --> E    L_3       
     e(  8 -  8) =     12.18780  eV     1   --> A_1  L_1       

 **************************************************************************

 **************************************************************************

                    xk=(   0.05013,   0.05013,   0.05013  )

     Band symmetry, C_3v (3m)   point group:

     e(  1 -  1) =     -5.99985  eV     1   --> A_1  L_1       
     e(  2 -  2) =      0.51083  eV     1   --> A_1  L_1       
     e(  3 -  4) =      4.80697  eV     2   --> E    L_3       
     e(  5 -  5) =      6.40126  eV     1   --> A_1  L_1       
     e(  6 -  7) =      9.53913  eV     2   --> E    L_3       
     e(  8 -  8) =     12.15490  eV     1   --> A_1  L_1       

 **************************************************************************

 **************************************************************************

                    xk=(   0.04981,   0.04981,   0.04981  )

     Band symmetry, C_3v (3m)   point group:

     e(  1 -  1) =     -6.01107  eV     1   --> A_1  L_1       
[...]
     e(  3 -  4) =      2.80739  eV     2   --> B_2  D_4  S_4  
     e(  5 -  5) =      6.37168  eV     1   --> A_1  D_1  S_1  
     e(  6 -  6) =      6.80236  eV     1   --> A_1  D_1  S_1  
     e(  7 -  8) =     15.06085  eV     2   --> B_1  D_3  S_3  
     e(  7 -  8) =     15.06085  eV     2   --> B_2  D_4  S_4  

 **************************************************************************

 **************************************************************************

                    xk=(   0.15859,   0.00000,   0.00000  )

     Band symmetry, C_2v (mm2)  point group:

     e(  1 -  1) =     -3.79329  eV     1   --> A_1  D_1  S_1  
     e(  2 -  2) =     -2.30019  eV     1   --> A_1  D_1  S_1  
     e(  3 -  4) =      2.80348  eV     2   --> B_1  D_3  S_3  
     e(  3 -  4) =      2.80348  eV     2   --> B_2  D_4  S_4  
     e(  5 -  5) =      6.37554  eV     1   --> A_1  D_1  S_1  
     e(  6 -  6) =      6.78828  eV     1   --> A_1  D_1  S_1  
     e(  7 -  8) =     15.08790  eV     2   --> B_1  D_3  S_3  
     e(  7 -  8) =     15.08790  eV     2   --> B_2  D_4  S_4  

 **************************************************************************

 **************************************************************************

                    xk=(   0.15938,   0.00000,   0.00000  )

     Band symmetry, C_2v (mm2)  point group:

     e(  1 -  1) =     -3.76333  eV     1   --> A_1  D_1  S_1  
     e(  2 -  2) =     -2.33495  eV     1   --> A_1  D_1  S_1  
     e(  3 -  4) =      2.79973  eV     2   --> B_1  D_3  S_3  
     e(  3 -  4) =      2.79973  eV     2   --> B_2  D_4  S_4  
     e(  5 -  5) =      6.37963  eV     1   --> A_1  D_1  S_1  
     e(  6 -  6) =      6.77441  eV     1   --> A_1  D_1  S_1  
     e(  7 -  8) =     15.11419  eV     2   --> B_1  D_3  S_3  
     e(  7 -  8) =     15.11419  eV     2   --> B_2  D_4  S_4  

 **************************************************************************

 **************************************************************************

                    xk=(   0.16017,   0.00000,   0.00000  )

     Band symmetry, C_2v (mm2)  point group:

     e(  1 -  1) =     -3.73325  eV     1   --> A_1  D_1  S_1  
     e(  2 -  2) =     -2.36962  eV     1   --> A_1  D_1  S_1  
     e(  3 -  4) =      2.79614  eV     2   --> B_1  D_3  S_3  
     e(  3 -  4) =      2.79614  eV     2   --> B_2  D_4  S_4  
     e(  5 -  5) =      6.38393  eV     1   --> A_1  D_1  S_1  
     e(  6 -  6) =      6.76075  eV     1   --> A_1  D_1  S_1  
     e(  7 -  8) =     15.13968  eV     2   --> B_1  D_3  S_3  
     e(  7 -  8) =     15.13968  eV     2   --> B_2  D_4  S_4  

 **************************************************************************

 **************************************************************************

                    xk=(   0.16096,   0.00000,   0.00000  )

     Band symmetry, C_2v (mm2)  point group:

     e(  1 -  1) =     -3.70304  eV     1   --> A_1  D_1  S_1  
     e(  2 -  2) =     -2.40419  eV     1   --> A_1  D_1  S_1  
     e(  3 -  4) =      2.79273  eV     2   --> B_1  D_3  S_3  
     e(  3 -  4) =      2.79273  eV     2   --> B_2  D_4  S_4  
     e(  5 -  5) =      6.38844  eV     1   --> A_1  D_1  S_1  
     e(  6 -  6) =      6.74731  eV     1   --> A_1  D_1  S_1  
     e(  7 -  8) =     15.16435  eV     2   --> B_1  D_3  S_3  
     e(  7 -  8) =     15.16435  eV     2   --> B_2  D_4  S_4  

 **************************************************************************

 **************************************************************************

                    xk=(   0.16175,   0.00000,   0.00000  )

     Band symmetry, C_2v (mm2)  point group:

     e(  1 -  1) =     -3.67272  eV     1   --> A_1  D_1  S_1  
     e(  2 -  2) =     -2.43867  eV     1   --> A_1  D_1  S_1  
     e(  3 -  4) =      2.78948  eV     2   --> B_1  D_3  S_3  
     e(  3 -  4) =      2.78948  eV     2   --> B_2  D_4  S_4  
     e(  5 -  5) =      6.39317  eV     1   --> A_1  D_1  S_1  
     e(  6 -  6) =      6.73409  eV     1   --> A_1  D_1  S_1  
     e(  7 -  8) =     15.18814  eV     2   --> B_1  D_3  S_3  
     e(  7 -  8) =     15.18814  eV     2   --> B_2  D_4  S_4  

 **************************************************************************

 **************************************************************************

                    xk=(   0.16254,   0.00000,   0.00000  )

     Band symmetry, C_2v (mm2)  point group:

     e(  1 -  1) =     -3.64229  eV     1   --> A_1  D_1  S_1  
     e(  2 -  2) =     -2.47306  eV     1   --> A_1  D_1  S_1  
     e(  3 -  4) =      2.78640  eV     2   --> B_1  D_3  S_3  
     e(  3 -  4) =      2.78640  eV     2   --> B_2  D_4  S_4  
     e(  5 -  5) =      6.39811  eV     1   --> A_1  D_1  S_1  
     e(  6 -  6) =      6.72108  eV     1   --> A_1  D_1  S_1  
     e(  7 -  8) =     15.21104  eV     2   --> B_1  D_3  S_3  
     e(  7 -  8) =     15.21104  eV     2   --> B_2  D_4  S_4  

 **************************************************************************

 **************************************************************************

                    xk=(   0.16333,   0.00000,   0.00000  )

     Band symmetry, C_2v (mm2)  point group:

     e(  1 -  1) =     -3.61173  eV     1   --> A_1  D_1  S_1  
     e(  2 -  2) =     -2.50734  eV     1   --> A_1  D_1  S_1  
     e(  3 -  4) =      2.78348  eV     2   --> B_1  D_3  S_3  
     e(  3 -  4) =      2.78348  eV     2   --> B_2  D_4  S_4  
     e(  5 -  5) =      6.40327  eV     1   --> A_1  D_1  S_1  
     e(  6 -  6) =      6.70829  eV     1   --> A_1  D_1  S_1  
     e(  7 -  8) =     15.23298  eV     2   --> B_1  D_3  S_3  
     e(  7 -  8) =     15.23298  eV     2   --> B_2  D_4  S_4  

 **************************************************************************

 **************************************************************************

                    xk=(   0.16412,   0.00000,   0.00000  )

     Band symmetry, C_2v (mm2)  point group:

     e(  1 -  1) =     -3.58106  eV     1   --> A_1  D_1  S_1  
     e(  2 -  2) =     -2.54153  eV     1   --> A_1  D_1  S_1  
     e(  3 -  4) =      2.78073  eV     2   --> B_1  D_3  S_3  
     e(  3 -  4) =      2.78073  eV     2   --> B_2  D_4  S_4  
     e(  5 -  5) =      6.40865  eV     1   --> A_1  D_1  S_1  
     e(  6 -  6) =      6.69571  eV     1   --> A_1  D_1  S_1  
     e(  7 -  8) =     15.25395  eV     2   --> B_1  D_3  S_3  
     e(  7 -  8) =     15.25395  eV     2   --> B_2  D_4  S_4  

 **************************************************************************

 **************************************************************************

                    xk=(   0.16491,   0.00000,   0.00000  )

     Band symmetry, C_2v (mm2)  point group:

     e(  1 -  1) =     -3.55028  eV     1   --> A_1  D_1  S_1  
     e(  2 -  2) =     -2.57563  eV     1   --> A_1  D_1  S_1  
     e(  3 -  4) =      2.77814  eV     2   --> B_1  D_3  S_3  
     e(  3 -  4) =      2.77814  eV     2   --> B_2  D_4  S_4  
     e(  5 -  5) =      6.41424  eV     1   --> A_1  D_1  S_1  
     e(  6 -  6) =      6.68336  eV     1   --> A_1  D_1  S_1  
     e(  7 -  8) =     15.27389  eV     2   --> B_1  D_3  S_3  
     e(  7 -  8) =     15.27389  eV     2   --> B_2  D_4  S_4  

 **************************************************************************

 **************************************************************************

                    xk=(   0.16569,   0.00000,   0.00000  )

     Band symmetry, C_2v (mm2)  point group:

     e(  1 -  1) =     -3.51937  eV     1   --> A_1  D_1  S_1  
     e(  2 -  2) =     -2.60963  eV     1   --> A_1  D_1  S_1  
     e(  3 -  4) =      2.77572  eV     2   --> B_1  D_3  S_3  
     e(  3 -  4) =      2.77572  eV     2   --> B_2  D_4  S_4  
     e(  5 -  5) =      6.42005  eV     1   --> A_1  D_1  S_1  
     e(  6 -  6) =      6.67122  eV     1   --> A_1  D_1  S_1  
     e(  7 -  8) =     15.29278  eV     2   --> B_1  D_3  S_3  
     e(  7 -  8) =     15.29278  eV     2   --> B_2  D_4  S_4  

 **************************************************************************

 **************************************************************************

                    xk=(   0.16648,   0.00000,   0.00000  )

     Band symmetry, C_2v (mm2)  point group:

     e(  1 -  1) =     -3.48836  eV     1   --> A_1  D_1  S_1  
     e(  2 -  2) =     -2.64352  eV     1   --> A_1  D_1  S_1  
     e(  3 -  4) =      2.77347  eV     2   --> B_1  D_3  S_3  
     e(  3 -  4) =      2.77347  eV     2   --> B_2  D_4  S_4  
     e(  5 -  5) =      6.42608  eV     1   --> A_1  D_1  S_1  
     e(  6 -  6) =      6.65930  eV     1   --> A_1  D_1  S_1  
     e(  7 -  8) =     15.31056  eV     2   --> B_1  D_3  S_3  
     e(  7 -  8) =     15.31056  eV     2   --> B_2  D_4  S_4  

 **************************************************************************

 **************************************************************************

                    xk=(   0.16727,   0.00000,   0.00000  )

     Band symmetry, C_2v (mm2)  point group:

     e(  1 -  1) =     -3.45723  eV     1   --> A_1  D_1  S_1  
     e(  2 -  2) =     -2.67732  eV     1   --> A_1  D_1  S_1  
     e(  3 -  4) =      2.77139  eV     2   --> B_1  D_3  S_3  
     e(  3 -  4) =      2.77139  eV     2   --> B_2  D_4  S_4  
     e(  5 -  5) =      6.43232  eV     1   --> A_1  D_1  S_1  
     e(  6 -  6) =      6.64759  eV     1   --> A_1  D_1  S_1  
     e(  7 -  8) =     15.32721  eV     2   --> B_1  D_3  S_3  
     e(  7 -  8) =     15.32721  eV     2   --> B_2  D_4  S_4  

 **************************************************************************

 **************************************************************************

                    xk=(   0.16806,   0.00000,   0.00000  )

     Band symmetry, C_2v (mm2)  point group:

     e(  1 -  1) =     -3.42599  eV     1   --> A_1  D_1  S_1  
     e(  2 -  2) =     -2.71102  eV     1   --> A_1  D_1  S_1  
     e(  3 -  4) =      2.76947  eV     2   --> B_1  D_3  S_3  
     e(  3 -  4) =      2.76947  eV     2   --> B_2  D_4  S_4  
     e(  5 -  5) =      6.43878  eV     1   --> A_1  D_1  S_1  
     e(  6 -  6) =      6.63611  eV     1   --> A_1  D_1  S_1  
     e(  7 -  8) =     15.34268  eV     2   --> B_1  D_3  S_3  
     e(  7 -  8) =     15.34268  eV     2   --> B_2  D_4  S_4  

 **************************************************************************

 **************************************************************************

                    xk=(   0.16885,   0.00000,   0.00000  )

     Band symmetry, C_2v (mm2)  point group:

     e(  1 -  1) =     -3.39463  eV     1   --> A_1  D_1  S_1  
     e(  2 -  2) =     -2.74462  eV     1   --> A_1  D_1  S_1  
     e(  3 -  4) =      2.76772  eV     2   --> B_1  D_3  S_3  
     e(  3 -  4) =      2.76772  eV     2   --> B_2  D_4  S_4  
     e(  5 -  5) =      6.44546  eV     1   --> A_1  D_1  S_1  
     e(  6 -  6) =      6.62484  eV     1   --> A_1  D_1  S_1  
     e(  7 -  8) =     15.35694  eV     2   --> B_1  D_3  S_3  
     e(  7 -  8) =     15.35694  eV     2   --> B_2  D_4  S_4  

 **************************************************************************

 **************************************************************************

                    xk=(   0.16964,   0.00000,   0.00000  )

     Band symmetry, C_2v (mm2)  point group:

     e(  1 -  1) =     -3.36316  eV     1   --> A_1  D_1  S_1  
     e(  2 -  2) =     -2.77812  eV     1   --> A_1  D_1  S_1  
     e(  3 -  4) =      2.76613  eV     2   --> B_1  D_3  S_3  
     e(  3 -  4) =      2.76613  eV     2   --> B_2  D_4  S_4  
     e(  5 -  5) =      6.45235  eV     1   --> A_1  D_1  S_1  
     e(  6 -  6) =      6.61379  eV     1   --> A_1  D_1  S_1  
     e(  7 -  8) =     15.36996  eV     2   --> B_1  D_3  S_3  
     e(  7 -  8) =     15.36996  eV     2   --> B_2  D_4  S_4  

 **************************************************************************

 **************************************************************************

                    xk=(   0.17043,   0.00000,   0.00000  )

     Band symmetry, C_2v (mm2)  point group:

     e(  1 -  1) =     -3.33158  eV     1   --> A_1  D_1  S_1  
     e(  2 -  2) =     -2.81152  eV     1   --> A_1  D_1  S_1  
     e(  3 -  4) =      2.76472  eV     2   --> B_1  D_3  S_3  
     e(  3 -  4) =      2.76472  eV     2   --> B_2  D_4  S_4  
     e(  5 -  5) =      6.45947  eV     1   --> A_1  D_1  S_1  
     e(  6 -  6) =      6.60296  eV     1   --> A_1  D_1  S_1  
     e(  7 -  8) =     15.38171  eV     2   --> B_1  D_3  S_3  
     e(  7 -  8) =     15.38171  eV     2   --> B_2  D_4  S_4  

 **************************************************************************

 **************************************************************************

                    xk=(   0.17122,   0.00000,   0.00000  )

     Band symmetry, C_2v (mm2)  point group:

     e(  1 -  1) =     -3.29989  eV     1   --> A_1  D_1  S_1  
     e(  2 -  2) =     -2.84481  eV     1   --> A_1  D_1  S_1  
     e(  3 -  4) =      2.76346  eV     2   --> B_1  D_3  S_3  
     e(  3 -  4) =      2.76346  eV     2   --> B_2  D_4  S_4  
     e(  5 -  5) =      6.46680  eV     1   --> A_1  D_1  S_1  
     e(  6 -  6) =      6.59236  eV     1   --> A_1  D_1  S_1  
     e(  7 -  8) =     15.39214  eV     2   --> B_1  D_3  S_3  
     e(  7 -  8) =     15.39214  eV     2   --> B_2  D_4  S_4  

 **************************************************************************

 **************************************************************************

                    xk=(   0.17201,   0.00000,   0.00000  )

     Band symmetry, C_2v (mm2)  point group:

     e(  1 -  1) =     -3.26808  eV     1   --> A_1  D_1  S_1  
     e(  2 -  2) =     -2.87800  eV     1   --> A_1  D_1  S_1  
     e(  3 -  4) =      2.76238  eV     2   --> B_1  D_3  S_3  
     e(  3 -  4) =      2.76238  eV     2   --> B_2  D_4  S_4  
     e(  5 -  5) =      6.47435  eV     1   --> A_1  D_1  S_1  
     e(  6 -  6) =      6.58197  eV     1   --> A_1  D_1  S_1  
     e(  7 -  8) =     15.40125  eV     2   --> B_1  D_3  S_3  
     e(  7 -  8) =     15.40125  eV     2   --> B_2  D_4  S_4  

 **************************************************************************

 **************************************************************************

                    xk=(   0.17280,   0.00000,   0.00000  )

     Band symmetry, C_2v (mm2)  point group:

     e(  1 -  1) =     -3.23617  eV     1   --> A_1  D_1  S_1  
     e(  2 -  2) =     -2.91110  eV     1   --> A_1  D_1  S_1  
     e(  3 -  4) =      2.76145  eV     2   --> B_1  D_3  S_3  
     e(  3 -  4) =      2.76145  eV     2   --> B_2  D_4  S_4  
     e(  5 -  5) =      6.48212  eV     1   --> A_1  D_1  S_1  
     e(  6 -  6) =      6.57179  eV     1   --> A_1  D_1  S_1  
     e(  7 -  8) =     15.40898  eV     2   --> B_1  D_3  S_3  
     e(  7 -  8) =     15.40898  eV     2   --> B_2  D_4  S_4  

 **************************************************************************

 **************************************************************************

                    xk=(   0.17358,   0.00000,   0.00000  )

     Band symmetry, C_2v (mm2)  point group:

     e(  1 -  1) =     -3.20415  eV     1   --> A_1  D_1  S_1  
     e(  2 -  2) =     -2.94408  eV     1   --> A_1  D_1  S_1  
     e(  3 -  4) =      2.76070  eV     2   --> B_1  D_3  S_3  
     e(  3 -  4) =      2.76070  eV     2   --> B_2  D_4  S_4  
     e(  5 -  5) =      6.49007  eV     1   --> A_1  D_1  S_1  
     e(  6 -  6) =      6.56184  eV     1   --> A_1  D_1  S_1  
     e(  7 -  8) =     15.41534  eV     2   --> B_1  D_3  S_3  
     e(  7 -  8) =     15.41534  eV     2   --> B_2  D_4  S_4  

 **************************************************************************

 **************************************************************************

                    xk=(   0.17437,   0.00000,   0.00000  )

     Band symmetry, C_2v (mm2)  point group:

     e(  1 -  1) =     -3.17201  eV     1   --> A_1  D_1  S_1  
     e(  2 -  2) =     -2.97696  eV     1   --> A_1  D_1  S_1  
     e(  3 -  4) =      2.76012  eV     2   --> B_1  D_3  S_3  
     e(  3 -  4) =      2.76012  eV     2   --> B_2  D_4  S_4  
     e(  5 -  5) =      6.49828  eV     1   --> A_1  D_1  S_1  
     e(  6 -  6) =      6.55210  eV     1   --> A_1  D_1  S_1  
     e(  7 -  8) =     15.42031  eV     2   --> B_1  D_3  S_3  
     e(  7 -  8) =     15.42031  eV     2   --> B_2  D_4  S_4  

 **************************************************************************

 **************************************************************************

                    xk=(   0.17516,   0.00000,   0.00000  )

     Band symmetry, C_2v (mm2)  point group:

     e(  1 -  1) =     -3.13977  eV     1   --> A_1  D_1  S_1  
     e(  2 -  2) =     -3.00974  eV     1   --> A_1  D_1  S_1  
     e(  3 -  4) =      2.75970  eV     2   --> B_1  D_3  S_3  
     e(  3 -  4) =      2.75970  eV     2   --> B_2  D_4  S_4  
     e(  5 -  5) =      6.50670  eV     1   --> A_1  D_1  S_1  
     e(  6 -  6) =      6.54258  eV     1   --> A_1  D_1  S_1  
     e(  7 -  8) =     15.42387  eV     2   --> B_1  D_3  S_3  
     e(  7 -  8) =     15.42387  eV     2   --> B_2  D_4  S_4  

 **************************************************************************

 **************************************************************************

                    xk=(   0.17595,   0.00000,   0.00000  )

     Band symmetry, C_2v (mm2)  point group:

     e(  1 -  1) =     -3.10743  eV     1   --> A_1  D_1  S_1  
     e(  2 -  2) =     -3.04241  eV     1   --> A_1  D_1  S_1  
     e(  3 -  4) =      2.75945  eV     2   --> B_1  D_3  S_3  
     e(  3 -  4) =      2.75945  eV     2   --> B_2  D_4  S_4  
     e(  5 -  5) =      6.51534  eV     1   --> A_1  D_1  S_1  
     e(  6 -  6) =      6.53329  eV     1   --> A_1  D_1  S_1  
     e(  7 -  8) =     15.42601  eV     2   --> B_1  D_3  S_3  
     e(  7 -  8) =     15.42601  eV     2   --> B_2  D_4  S_4  

 **************************************************************************

 **************************************************************************

                    xk=(   0.17674,   0.00000,   0.00000  )

     point group D_2d (-42m)
     there are  5 classes
     the character table:

       E     2S4   C2    2C2'  2s_d 
A_1    1.00  1.00  1.00  1.00  1.00
A_2    1.00  1.00  1.00 -1.00 -1.00
B_1    1.00 -1.00  1.00  1.00 -1.00
B_2    1.00 -1.00  1.00 -1.00  1.00
E      2.00  0.00 -2.00  0.00  0.00

     the symmetry operations in each class and the name of the first element:

     E        1
                                                                 
     2S4      7    8
                                                                 
     C2       4
                                                                 
     2C2'     2    3
                                                                 
     2s_d     5    6
                                                                 

     Band symmetry, D_2d (-42m) point group:

     e(  1 -  1) =     -3.07507  eV     1   --> A_1  X_1  W_1  
     e(  2 -  2) =     -3.07486  eV     1   --> B_2  X_3  W_2  
     e(  3 -  4) =      2.75937  eV     2   --> E    X_5  W_3  
     e(  5 -  6) =      6.52419  eV     2   --> A_1  X_1  W_1  
     e(  5 -  6) =      6.52419  eV     2   --> B_2  X_3  W_2  
     e(  7 -  8) =     15.42673  eV     2   --> E    X_5  W_3  

 **************************************************************************
 
     BANDS        :    11.31s CPU        14.92s WALL

 
   This run was terminated on:   0:44:54  10Sep2020            

=------------------------------------------------------------------------------=
   JOB DONE.
=------------------------------------------------------------------------------=
