
     Program PWSCF v.6.2 starts on  7Jun2020 at 14:27:40 

     This program is part of the open-source Quantum ESPRESSO suite
     for quantum simulation of materials; please cite
         "P. Giannozzi et al., J. Phys.:Condens. Matter 21 395502 (2009);
         "P. Giannozzi et al., J. Phys.:Condens. Matter 29 465901 (2017);
          URL http://www.quantum-espresso.org", 
     in publications or presentations arising from this work. More details at
     http://www.quantum-espresso.org/quote

     Parallel version (MPI), running on    16 processors

     MPI processes distributed on     1 nodes
     R & G space division:  proc/nbgrp/npool/nimage =      16
     Waiting for input...
     Reading input from standard input
     Message from routine read_cards :
     DEPRECATED: no units specified in CELL_PARAMETERS card

     Current dimensions of program PWSCF are:
     Max number of different atomic species (ntypx) = 10
     Max number of k-points (npk) =  40000
     Max angular momentum in pseudopotentials (lmaxx) =  3

     Subspace diagonalization in iterative solution of the eigenvalue problem:
     one sub-group per band group will be used
     scalapack distributed-memory algorithm (size of sub-group:  2*  2 procs)

 
     Parallelization info
     --------------------
     sticks:   dense  smooth     PW     G-vecs:    dense   smooth      PW
     Min          59      59     17                 1198     1198     195
     Max          60      60     18                 1200     1200     198
     Sum         955     955    283                19195    19195    3143
 


     bravais-lattice index     =            0
     lattice parameter (alat)  =       1.8897  a.u.
     unit-cell volume          =     304.2860 (a.u.)^3
     number of atoms/cell      =            2
     number of atomic types    =            1
     number of electrons       =         8.00
     number of Kohn-Sham states=            8
     kinetic-energy cutoff     =      60.0000  Ry
     charge density cutoff     =     240.0000  Ry
     convergence threshold     =      1.0E-06
     mixing beta               =       0.7000
     number of iterations used =            8  plain     mixing
     Exchange-correlation      =  SLA  PW   PBX  PBC ( 1  4  3  4 0 0)

     celldm(1)=   1.889726  celldm(2)=   0.000000  celldm(3)=   0.000000
     celldm(4)=   0.000000  celldm(5)=   0.000000  celldm(6)=   0.000000

     crystal axes: (cart. coord. in units of alat)
               a(1) = (   0.000000   2.825000   2.825000 )  
               a(2) = (   2.825000   0.000000   2.825000 )  
               a(3) = (   2.825000   2.825000   0.000000 )  

     reciprocal axes: (cart. coord. in units 2 pi/alat)
               b(1) = ( -0.176991  0.176991  0.176991 )  
               b(2) = (  0.176991 -0.176991  0.176991 )  
               b(3) = (  0.176991  0.176991 -0.176991 )  


     PseudoPot. # 1 for Ge read from file:
     /shared/ESPRESSO/PSLIBRARY/1.0.0/pbe/PSEUDOPOTENTIALS/Ge.pbe-n-kjpaw_psl.1.0.0.UPF
     MD5 check sum: e6063357164f7ec107b9a3d2bf12fbbf
     Pseudo is Projector augmented-wave + core cor, Zval =  4.0
     Generated using "atomic" code by A. Dal Corso  (Quantum ESPRESSO distribution)
     Shape of augmentation charge: PSQ
     Using radial grid of 1207 points,  4 beta functions with: 
                l(1) =   0
                l(2) =   0
                l(3) =   1
                l(4) =   1
     Q(r) pseudized with 0 coefficients 


     atomic species   valence    mass     pseudopotential
        Ge             4.00    72.63000     Ge( 1.00)

     48 Sym. Ops., with inversion, found (24 have fractional translation)



   Cartesian axes

     site n.     atom                  positions (alat units)
         1           Ge  tau(   1) = (   0.0000000   0.0000000   0.0000000  )
         2           Ge  tau(   2) = (   1.4125000   1.4125000   1.4125000  )

     number of k points=   120  Fermi-Dirac smearing, width (Ry)=  0.0070

     Number of k-points >= 100: set verbosity='high' to print them.

     Dense  grid:    19195 G-vectors     FFT dimensions: (  40,  40,  40)

     Estimated max dynamical RAM per process >       4.00 MB

     Estimated total dynamical RAM >      63.95 MB

     Initial potential from superposition of free atoms

     starting charge    7.99847, renormalised to    8.00000
     Starting wfc are    8 randomized atomic wfcs
     Checking if some PAW data can be deallocated... 

     total cpu time spent up to now is        2.5 secs

     Self-consistent Calculation

     iteration #  1     ecut=    60.00 Ry     beta= 0.70
     Davidson diagonalization with overlap
     ethr =  1.00E-02,  avg # of iterations =  3.0

     Threshold (ethr) on eigenvalues was too large:
     Diagonalizing with lowered threshold

     Davidson diagonalization with overlap
     ethr =  3.96E-04,  avg # of iterations =  1.8

     total cpu time spent up to now is       13.8 secs

     total energy              =    -328.23400025 Ry
     Harris-Foulkes estimate   =    -328.24000922 Ry
     estimated scf accuracy    <       0.03192181 Ry

     iteration #  2     ecut=    60.00 Ry     beta= 0.70
     Davidson diagonalization with overlap
     ethr =  3.99E-04,  avg # of iterations =  1.0

     total cpu time spent up to now is       15.8 secs

     total energy              =    -328.23483400 Ry
     Harris-Foulkes estimate   =    -328.23491975 Ry
     estimated scf accuracy    <       0.00166818 Ry

     iteration #  3     ecut=    60.00 Ry     beta= 0.70
     Davidson diagonalization with overlap
     ethr =  2.09E-05,  avg # of iterations =  1.9

     total cpu time spent up to now is       18.3 secs

     total energy              =    -328.23488276 Ry
     Harris-Foulkes estimate   =    -328.23487868 Ry
     estimated scf accuracy    <       0.00001700 Ry

     iteration #  4     ecut=    60.00 Ry     beta= 0.70
     Davidson diagonalization with overlap
     ethr =  2.12E-07,  avg # of iterations =  2.6

     total cpu time spent up to now is       21.5 secs

     End of self-consistent calculation

     Number of k-points >= 100: set verbosity='high' to print the bands.

     the Fermi energy is     5.9634 ev

!    total energy              =    -328.23488623 Ry
     Harris-Foulkes estimate   =    -328.23488607 Ry
     estimated scf accuracy    <       0.00000012 Ry

     total all-electron energy =     -8395.999654 Ry

     The total energy is the sum of the following terms:

     one-electron contribution =       5.57630287 Ry
     hartree contribution      =       1.14887895 Ry
     xc contribution           =     -13.27342377 Ry
     ewald contribution        =     -16.14482550 Ry
     one-center paw contrib.   =    -305.54171448 Ry
     smearing contrib. (-TS)   =      -0.00010429 Ry

     convergence has been achieved in   4 iterations

     Writing output data file scf.save
 
     init_run     :      1.19s CPU      1.47s WALL (       1 calls)
     electrons    :     16.43s CPU     19.52s WALL (       1 calls)

     Called by init_run:
     wfcinit      :      0.75s CPU      0.80s WALL (       1 calls)
     potinit      :      0.19s CPU      0.34s WALL (       1 calls)

     Called by electrons:
     c_bands      :     14.84s CPU     17.31s WALL (       5 calls)
     sum_band     :      1.30s CPU      1.36s WALL (       5 calls)
     v_of_rho     :      0.09s CPU      0.16s WALL (       5 calls)
     newd         :      0.06s CPU      0.06s WALL (       5 calls)
     PAW_pot      :      0.30s CPU      0.40s WALL (       5 calls)
     mix_rho      :      0.01s CPU      0.01s WALL (       5 calls)

     Called by c_bands:
     init_us_2    :      0.16s CPU      0.16s WALL (    1320 calls)
     cegterg      :     14.39s CPU     16.78s WALL (     600 calls)

     Called by sum_band:
     sum_band:bec :      0.01s CPU      0.01s WALL (     600 calls)
     addusdens    :      0.02s CPU      0.02s WALL (       5 calls)

     Called by *egterg:
     h_psi        :      6.84s CPU      7.30s WALL (    1959 calls)
     s_psi        :      0.10s CPU      0.20s WALL (    1959 calls)
     g_psi        :      0.03s CPU      0.04s WALL (    1239 calls)
     cdiaghg      :      5.76s CPU      7.24s WALL (    1719 calls)

     Called by h_psi:
     h_psi:pot    :      6.82s CPU      7.27s WALL (    1959 calls)
     h_psi:calbec :      0.47s CPU      0.56s WALL (    1959 calls)
     vloc_psi     :      6.20s CPU      6.49s WALL (    1959 calls)
     add_vuspsi   :      0.13s CPU      0.20s WALL (    1959 calls)

     General routines
     calbec       :      0.55s CPU      0.67s WALL (    2559 calls)
     fft          :      0.10s CPU      0.15s WALL (      67 calls)
     fftw         :      6.75s CPU      7.04s WALL (   29102 calls)
     davcio       :      0.00s CPU      0.00s WALL (     120 calls)
 
     Parallel routines
     fft_scatt_xy :      0.37s CPU      0.44s WALL (   29169 calls)
     fft_scatt_yz :      4.25s CPU      4.40s WALL (   29169 calls)
 
     PWSCF        :  0m18.32s CPU     4m49.26s WALL

 
   This run was terminated on:  14:32:29   7Jun2020            

=------------------------------------------------------------------------------=
   JOB DONE.
=------------------------------------------------------------------------------=
