
     Program PWSCF v.6.2 starts on 10Jun2020 at  5:35:59 

     This program is part of the open-source Quantum ESPRESSO suite
     for quantum simulation of materials; please cite
         "P. Giannozzi et al., J. Phys.:Condens. Matter 21 395502 (2009);
         "P. Giannozzi et al., J. Phys.:Condens. Matter 29 465901 (2017);
          URL http://www.quantum-espresso.org", 
     in publications or presentations arising from this work. More details at
     http://www.quantum-espresso.org/quote

     Parallel version (MPI), running on    16 processors

     MPI processes distributed on     1 nodes
     R & G space division:  proc/nbgrp/npool/nimage =      16
     Waiting for input...
     Reading input from standard input
     Message from routine read_cards :
     DEPRECATED: no units specified in CELL_PARAMETERS card

     Current dimensions of program PWSCF are:
     Max number of different atomic species (ntypx) = 10
     Max number of k-points (npk) =  40000
     Max angular momentum in pseudopotentials (lmaxx) =  3

     Subspace diagonalization in iterative solution of the eigenvalue problem:
     one sub-group per band group will be used
     scalapack distributed-memory algorithm (size of sub-group:  2*  2 procs)

 
     Parallelization info
     --------------------
     sticks:   dense  smooth     PW     G-vecs:    dense   smooth      PW
     Min          48      48     15                  897      897     152
     Max          49      49     16                  901      901     155
     Sum         769     769    241                14361    14361    2445
 


     bravais-lattice index     =            0
     lattice parameter (alat)  =       1.8897  a.u.
     unit-cell volume          =     304.2860 (a.u.)^3
     number of atoms/cell      =            2
     number of atomic types    =            1
     number of electrons       =         8.00
     number of Kohn-Sham states=            8
     kinetic-energy cutoff     =      50.0000  Ry
     charge density cutoff     =     200.0000  Ry
     convergence threshold     =      1.0E-06
     mixing beta               =       0.7000
     number of iterations used =            8  plain     mixing
     Exchange-correlation      =  SLA  PW   PBX  PBC ( 1  4  3  4 0 0)

     celldm(1)=   1.889726  celldm(2)=   0.000000  celldm(3)=   0.000000
     celldm(4)=   0.000000  celldm(5)=   0.000000  celldm(6)=   0.000000

     crystal axes: (cart. coord. in units of alat)
               a(1) = (   0.000000   2.825000   2.825000 )  
               a(2) = (   2.825000   0.000000   2.825000 )  
               a(3) = (   2.825000   2.825000   0.000000 )  

     reciprocal axes: (cart. coord. in units 2 pi/alat)
               b(1) = ( -0.176991  0.176991  0.176991 )  
               b(2) = (  0.176991 -0.176991  0.176991 )  
               b(3) = (  0.176991  0.176991 -0.176991 )  


     PseudoPot. # 1 for Ge read from file:
     /shared/ESPRESSO/PSLIBRARY/1.0.0/pbe/PSEUDOPOTENTIALS/Ge.pbe-n-kjpaw_psl.1.0.0.UPF
     MD5 check sum: e6063357164f7ec107b9a3d2bf12fbbf
     Pseudo is Projector augmented-wave + core cor, Zval =  4.0
     Generated using "atomic" code by A. Dal Corso  (Quantum ESPRESSO distribution)
     Shape of augmentation charge: PSQ
     Using radial grid of 1207 points,  4 beta functions with: 
                l(1) =   0
                l(2) =   0
                l(3) =   1
                l(4) =   1
     Q(r) pseudized with 0 coefficients 


     atomic species   valence    mass     pseudopotential
        Ge             4.00    72.63000     Ge( 1.00)

     48 Sym. Ops., with inversion, found (24 have fractional translation)



   Cartesian axes

     site n.     atom                  positions (alat units)
         1           Ge  tau(   1) = (   0.0000000   0.0000000   0.0000000  )
         2           Ge  tau(   2) = (   1.4125000   1.4125000   1.4125000  )

     number of k points=    29  Fermi-Dirac smearing, width (Ry)=  0.0070
                       cart. coord. in units 2pi/alat
        k(    1) = (   0.0000000   0.0000000   0.0000000), wk =   0.0039062
        k(    2) = (   0.0221239   0.0221239  -0.0221239), wk =   0.0312500
        k(    3) = (   0.0442478   0.0442478  -0.0442478), wk =   0.0312500
        k(    4) = (   0.0663717   0.0663717  -0.0663717), wk =   0.0312500
        k(    5) = (  -0.0884956  -0.0884956   0.0884956), wk =   0.0156250
        k(    6) = (   0.0442478   0.0000000   0.0000000), wk =   0.0234375
        k(    7) = (   0.0663717   0.0221239  -0.0221239), wk =   0.0937500
        k(    8) = (   0.0884956   0.0442478  -0.0442478), wk =   0.0937500
        k(    9) = (  -0.0663717  -0.1106195   0.1106195), wk =   0.0937500
        k(   10) = (  -0.0442478  -0.0884956   0.0884956), wk =   0.0937500
        k(   11) = (  -0.0221239  -0.0663717   0.0663717), wk =   0.0937500
        k(   12) = (   0.0000000  -0.0442478   0.0442478), wk =   0.0468750
        k(   13) = (   0.0884956   0.0000000   0.0000000), wk =   0.0234375
        k(   14) = (   0.1106195   0.0221239  -0.0221239), wk =   0.0937500
        k(   15) = (  -0.0442478  -0.1327434   0.1327434), wk =   0.0937500
        k(   16) = (  -0.0221239  -0.1106195   0.1106195), wk =   0.0937500
        k(   17) = (   0.0000000  -0.0884956   0.0884956), wk =   0.0468750
        k(   18) = (   0.1327434   0.0000000   0.0000000), wk =   0.0234375
        k(   19) = (  -0.0221239  -0.1548673   0.1548673), wk =   0.0937500
        k(   20) = (   0.0000000  -0.1327434   0.1327434), wk =   0.0468750
        k(   21) = (  -0.1769912   0.0000000   0.0000000), wk =   0.0117188
        k(   22) = (   0.0884956   0.0442478   0.0000000), wk =   0.0937500
        k(   23) = (  -0.0663717  -0.1106195   0.1548673), wk =   0.1875000
        k(   24) = (  -0.0442478  -0.0884956   0.1327434), wk =   0.0937500
        k(   25) = (  -0.0442478  -0.1327434   0.1769912), wk =   0.0937500
        k(   26) = (  -0.0221239  -0.1106195   0.1548673), wk =   0.1875000
        k(   27) = (   0.0000000  -0.0884956   0.1327434), wk =   0.0937500
        k(   28) = (  -0.1769912   0.0442478   0.0000000), wk =   0.0468750
        k(   29) = (  -0.1769912   0.0884956   0.0000000), wk =   0.0234375

     Dense  grid:    14361 G-vectors     FFT dimensions: (  36,  36,  36)

     Estimated max dynamical RAM per process >       1.80 MB

     Estimated total dynamical RAM >      28.80 MB

     Initial potential from superposition of free atoms

     starting charge    7.99847, renormalised to    8.00000
     Starting wfc are    8 randomized atomic wfcs
     Checking if some PAW data can be deallocated... 

     total cpu time spent up to now is        2.1 secs

     Self-consistent Calculation

     iteration #  1     ecut=    50.00 Ry     beta= 0.70
     Davidson diagonalization with overlap
     ethr =  1.00E-02,  avg # of iterations =  3.0

     Threshold (ethr) on eigenvalues was too large:
     Diagonalizing with lowered threshold

     Davidson diagonalization with overlap
     ethr =  4.01E-04,  avg # of iterations =  1.7

     total cpu time spent up to now is        3.4 secs

     total energy              =    -328.23322571 Ry
     Harris-Foulkes estimate   =    -328.23929116 Ry
     estimated scf accuracy    <       0.03222354 Ry

     iteration #  2     ecut=    50.00 Ry     beta= 0.70
     Davidson diagonalization with overlap
     ethr =  4.03E-04,  avg # of iterations =  1.0

     total cpu time spent up to now is        3.9 secs

     total energy              =    -328.23406426 Ry
     Harris-Foulkes estimate   =    -328.23415051 Ry
     estimated scf accuracy    <       0.00169463 Ry

     iteration #  3     ecut=    50.00 Ry     beta= 0.70
     Davidson diagonalization with overlap
     ethr =  2.12E-05,  avg # of iterations =  1.8

     total cpu time spent up to now is        4.4 secs

     total energy              =    -328.23411460 Ry
     Harris-Foulkes estimate   =    -328.23411053 Ry
     estimated scf accuracy    <       0.00001684 Ry

     iteration #  4     ecut=    50.00 Ry     beta= 0.70
     Davidson diagonalization with overlap
     ethr =  2.11E-07,  avg # of iterations =  2.4

     total cpu time spent up to now is        5.0 secs

     End of self-consistent calculation

          k = 0.0000 0.0000 0.0000 (  1837 PWs)   bands (ev):

    -6.9207   5.8465   5.8465   5.8465   6.0205   8.4257   8.4257   8.4257

          k = 0.0221 0.0221-0.0221 (  1829 PWs)   bands (ev):

    -6.7314   3.5140   5.5134   5.5134   6.9725   8.8804   8.8804   9.4073

          k = 0.0442 0.0442-0.0442 (  1829 PWs)   bands (ev):

    -6.1824   1.1309   4.9722   4.9722   6.5806   9.5090   9.5090  11.6108

          k = 0.0664 0.0664-0.0664 (  1838 PWs)   bands (ev):

    -5.3796  -0.8267   4.5916   4.5916   6.2049   9.6304   9.6304  13.2749

          k =-0.0885-0.0885 0.0885 (  1802 PWs)   bands (ev):

    -4.8468  -1.7514   4.4598   4.4598   6.0704   9.5827   9.5827  13.1537

          k = 0.0442 0.0000 0.0000 (  1828 PWs)   bands (ev):

    -6.6672   3.4910   4.9708   4.9708   7.7711   8.2103   9.6414   9.6414

          k = 0.0664 0.0221-0.0221 (  1822 PWs)   bands (ev):

    -6.2332   1.6784   4.3352   4.4121   7.7940   8.5509  10.4800  10.7715

          k = 0.0885 0.0442-0.0442 (  1840 PWs)   bands (ev):

    -5.4905  -0.2856   3.6571   4.1028   7.5186   9.1967  10.6307  11.5317

          k =-0.0664-0.1106 0.1106 (  1811 PWs)   bands (ev):

    -4.7487  -1.6221   3.1989   4.1045   7.2918   9.4072  10.3340  13.1706

          k =-0.0442-0.0885 0.0885 (  1811 PWs)   bands (ev):

    -4.9523  -1.2936   3.0544   4.4050   7.3139   9.6437  10.0394  13.3733

          k =-0.0221-0.0664 0.0664 (  1831 PWs)   bands (ev):

    -5.7686   0.3369   3.2930   4.9319   7.5515   9.6552   9.8481  11.6632

          k = 0.0000-0.0442 0.0442 (  1839 PWs)   bands (ev):

    -6.4200   2.2294   4.1006   5.4724   7.6556   9.0038   9.1723  10.7279

          k = 0.0885 0.0000 0.0000 (  1828 PWs)   bands (ev):

    -5.9146   1.1404   3.8141   3.8141   6.8587   8.6491  11.7722  11.7722

          k = 0.1106 0.0221-0.0221 (  1811 PWs)   bands (ev):

    -5.2585  -0.2261   2.9919   3.4687   7.1139   8.5858  11.6946  12.3959

          k =-0.0442-0.1327 0.1327 (  1809 PWs)   bands (ev):

    -4.4322  -1.5393   2.1161   3.4572   7.2556  10.1525  11.3504  12.1293

          k =-0.0221-0.1106 0.1106 (  1814 PWs)   bands (ev):

    -4.2714  -1.7511   1.6906   3.7777   7.4742  10.9770  11.5806  12.7613

          k = 0.0000-0.0885 0.0885 (  1812 PWs)   bands (ev):

    -5.0449  -0.6812   1.9735   4.3531   7.8466  10.7037  11.0325  11.2647

          k = 0.1327 0.0000 0.0000 (  1796 PWs)   bands (ev):

    -4.6897  -1.0666   3.0517   3.0517   6.3979   7.4035  14.0264  14.0264

          k =-0.0221-0.1549 0.1549 (  1800 PWs)   bands (ev):

    -3.8621  -2.1156   2.2853   2.9661   6.7189   7.7944  13.8829  14.2873

          k = 0.0000-0.1327 0.1327 (  1822 PWs)   bands (ev):

    -3.5176  -2.4530   1.5032   3.2274   6.9865   9.9846  13.2085  13.3444

          k =-0.1770 0.0000 0.0000 (  1772 PWs)   bands (ev):

    -3.0453  -3.0453   2.7905   2.7905   6.5629   6.5629  15.5090  15.5091

          k = 0.0885 0.0442 0.0000 (  1833 PWs)   bands (ev):

    -5.6905   0.4829   2.9874   4.2369   8.2329   8.7443  10.5317  11.4702

          k =-0.0664-0.1106 0.1549 (  1815 PWs)   bands (ev):

    -4.8869  -0.9760   2.2996   3.7558   8.3565   9.3033  10.8198  12.0688

          k =-0.0442-0.0885 0.1327 (  1808 PWs)   bands (ev):

    -4.3321  -1.8012   2.1183   3.5405   8.2931   9.2665  11.7220  12.9307

          k =-0.0442-0.1327 0.1770 (  1807 PWs)   bands (ev):

    -4.5201  -1.2767   2.3423   2.9567   7.7375   8.4152  11.5189  13.9060

          k =-0.0221-0.1106 0.1549 (  1811 PWs)   bands (ev):

    -3.7458  -2.1873   1.7007   2.7626   8.1582  10.1377  11.0050  13.0580

          k = 0.0000-0.0885 0.1327 (  1823 PWs)   bands (ev):

    -4.0720  -1.8255   1.5486   3.1236   8.5493  10.4303  10.9023  12.7432

          k =-0.1770 0.0442 0.0000 (  1798 PWs)   bands (ev):

    -2.9978  -2.9978   2.3079   2.3079   7.7877   7.7877  13.5771  13.5771

          k =-0.1770 0.0885 0.0000 (  1800 PWs)   bands (ev):

    -2.9478  -2.9478   1.9346   1.9346  10.2628  10.2628  10.5868  10.5868

     the Fermi energy is     5.9154 ev

!    total energy              =    -328.23411806 Ry
     Harris-Foulkes estimate   =    -328.23411789 Ry
     estimated scf accuracy    <       0.00000012 Ry

     total all-electron energy =     -8395.998886 Ry

     The total energy is the sum of the following terms:

     one-electron contribution =       5.57605288 Ry
     hartree contribution      =       1.15037079 Ry
     xc contribution           =     -13.27390732 Ry
     ewald contribution        =     -16.14482554 Ry
     one-center paw contrib.   =    -305.54159009 Ry
     smearing contrib. (-TS)   =      -0.00021878 Ry

     convergence has been achieved in   4 iterations

     Writing output data file scf.save
 
     init_run     :      0.70s CPU      1.11s WALL (       1 calls)
     electrons    :      2.73s CPU      3.87s WALL (       1 calls)

     Called by init_run:
     wfcinit      :      0.21s CPU      0.23s WALL (       1 calls)
     potinit      :      0.13s CPU      0.14s WALL (       1 calls)

     Called by electrons:
     c_bands      :      2.18s CPU      2.37s WALL (       5 calls)
     sum_band     :      0.28s CPU      0.30s WALL (       5 calls)
     v_of_rho     :      0.04s CPU      0.04s WALL (       5 calls)
     newd         :      0.01s CPU      0.02s WALL (       5 calls)
     PAW_pot      :      0.27s CPU      0.32s WALL (       5 calls)
     mix_rho      :      0.00s CPU      0.00s WALL (       5 calls)

     Called by c_bands:
     init_us_2    :      0.02s CPU      0.02s WALL (     319 calls)
     cegterg      :      2.12s CPU      2.30s WALL (     145 calls)

     Called by sum_band:
     sum_band:bec :      0.00s CPU      0.00s WALL (     145 calls)
     addusdens    :      0.01s CPU      0.01s WALL (       5 calls)

     Called by *egterg:
     h_psi        :      1.28s CPU      1.35s WALL (     463 calls)
     s_psi        :      0.02s CPU      0.04s WALL (     463 calls)
     g_psi        :      0.01s CPU      0.01s WALL (     289 calls)
     cdiaghg      :      0.70s CPU      0.76s WALL (     405 calls)

     Called by h_psi:
     h_psi:pot    :      1.28s CPU      1.35s WALL (     463 calls)
     h_psi:calbec :      0.06s CPU      0.08s WALL (     463 calls)
     vloc_psi     :      1.20s CPU      1.22s WALL (     463 calls)
     add_vuspsi   :      0.02s CPU      0.04s WALL (     463 calls)

     General routines
     calbec       :      0.07s CPU      0.11s WALL (     608 calls)
     fft          :      0.03s CPU      0.04s WALL (      67 calls)
     fftw         :      1.33s CPU      1.37s WALL (    7002 calls)
     davcio       :      0.00s CPU      0.00s WALL (      29 calls)
 
     Parallel routines
     fft_scatt_xy :      0.07s CPU      0.08s WALL (    7069 calls)
     fft_scatt_yz :      0.87s CPU      0.88s WALL (    7069 calls)
 
     PWSCF        :  0m 3.95s CPU     2m48.33s WALL

 
   This run was terminated on:   5:38:48  10Jun2020            

=------------------------------------------------------------------------------=
   JOB DONE.
=------------------------------------------------------------------------------=
